    -----------------------------------------------------------------------
          PSI4: An Open-Source Ab Initio Electronic Structure Package
                              PSI 4.0 Driver

               Git: Rev {master} 556e8139d3cfa1f96ccffe2cdf22cc56a185d2b2

    J. M. Turney, A. C. Simmonett, R. M. Parrish, E. G. Hohenstein,
    F. A. Evangelista, J. T. Fermann, B. J. Mintz, L. A. Burns, J. J. Wilke,
    M. L. Abrams, N. J. Russ, M. L. Leininger, C. L. Janssen, E. T. Seidl,
    W. D. Allen, H. F. Schaefer, R. A. King, E. F. Valeev, C. D. Sherrill,
    and T. D. Crawford, WIREs Comput. Mol. Sci. 2, 556-565 (2012)
    (doi: 10.1002/wcms.93)

                         Additional Contributions by
    A. E. DePrince, M. Saitow, U. Bozkaya, A. Yu. Sokolov
    -----------------------------------------------------------------------

    Process ID:  14566
    PSI4DATADIR: /Users/kevinhannon/Programs/psi4cmake/psi4/lib
    Memory level set to 256.000 MB

  ==> Input File <==

--------------------------------------------------------------------------

# PYTHONPATH must include directory above plugin directory.
#     Define either externally or here, then import plugin.
sys.path.insert(0, '/Users/kevinhannon/Programs/Quantum_Programs/Quantum-Programs/GS/')
import scf

molecule {
0 1
H
H 1 1.50000
symmetry c1
units angstrom
}


set {
  basis cc-pvdz
  reference rhf
  scf_type  pk
}

set scf {
  DO_FTHF true
  MAX_ITER 130
  MAX_TEMP 20000
  TEMP_INCREMENT 0
  bisect  true
  bisect_iter  40
}
energy('rhf')
energy('scf')


--------------------------------------------------------------------------

*** tstart() called on Kevins-MacBook-Pro.local
*** at Sun Apr 12 15:46:00 2015

/Users/kevinhannon/Programs/Quantum_Programs/Quantum-Programs/GS/scf/scf.so loaded.

*** tstart() called on Kevins-MacBook-Pro.local
*** at Sun Apr 12 15:46:00 2015


         ---------------------------------------------------------
                                   SCF
            by Justin Turney, Rob Parrish, and Andy Simmonett
                              RHF Reference
                        1 Threads,    256 MiB Core
         ---------------------------------------------------------

  ==> Geometry <==

    Molecular point group: c1
    Full point group: D_inf_h

    Geometry (in Angstrom), charge = 0, multiplicity = 1:

       Center              X                  Y                   Z       
    ------------   -----------------  -----------------  -----------------
           H          0.000000000000     0.000000000000    -0.750000000000
           H          0.000000000000     0.000000000000     0.750000000000

  Running in c1 symmetry.

  Rotational constants: A = ************  B =     14.86821  C =     14.86821 [cm^-1]
  Rotational constants: A = ************  B = 445737.86910  C = 445737.86910 [MHz]
  Nuclear repulsion =    0.352784805726667

  Charge       = 0
  Multiplicity = 1
  Electrons    = 2
  Nalpha       = 1
  Nbeta        = 1

  ==> Algorithm <==

  SCF Algorithm Type is PK.
  DIIS enabled.
  MOM disabled.
  Fractional occupation disabled.
  Guess Type is CORE.
  Energy threshold   = 1.00e-06
  Density threshold  = 1.00e-06
  Integral threshold = 0.00e+00

  ==> Primary Basis <==

  Basis Set: CC-PVDZ
    Number of shells: 6
    Number of basis function: 10
    Number of Cartesian functions: 10
    Spherical Harmonics?: true
    Max angular momentum: 1

  ==> Pre-Iterations <==

   -------------------------------------------------------
    Irrep   Nso     Nmo     Nalpha   Nbeta   Ndocc  Nsocc
   -------------------------------------------------------
     A         10      10       0       0       0       0
   -------------------------------------------------------
    Total      10      10       1       1       1       0
   -------------------------------------------------------

  Starting with a DF guess...

 OEINTS: Overlap, kinetic, potential, dipole, and quadrupole integrals
         stored in file 35.

  ==> Integral Setup <==

  ==> DFJK: Density-Fitted J/K Matrices <==

    J tasked:                  Yes
    K tasked:                  Yes
    wK tasked:                  No
    OpenMP threads:              1
    Integrals threads:           1
    Memory (MB):               183
    Algorithm:                Core
    Integral Cache:           NONE
    Schwarz Cutoff:          1E-12
    Fitting Condition:       1E-12

   => Auxiliary Basis Set <=

  Basis Set: 
    Number of shells: 18
    Number of basis function: 46
    Number of Cartesian functions: 50
    Spherical Harmonics?: true
    Max angular momentum: 2

  Minimum eigenvalue in the overlap matrix is 1.7423316118E-01.
  Using Symmetric Orthogonalization.
  SCF Guess: Core (One-Electron) Hamiltonian.

  ==> Iterations <==

                           Total Energy        Delta E     RMS |[F,P]|

   @DF-RHF iter   1:    -0.96950381100609   -9.69504e-01   1.73518e-02 
   @DF-RHF iter   2:    -1.00120441217792   -3.17006e-02   2.99924e-03 DIIS
   @DF-RHF iter   3:    -1.00219757730534   -9.93165e-04   1.09185e-04 DIIS
   @DF-RHF iter   4:    -1.00219852719153   -9.49886e-07   2.19459e-06 DIIS
   @DF-RHF iter   5:    -1.00219852773054   -5.39008e-10   4.78232e-10 DIIS

  DF guess converged.

  ==> Integral Setup <==

 MINTS: Wrapper to libmints.
   by Justin Turney

   Calculation information:
      Number of atoms:                   2
      Number of AO shells:               6
      Number of SO shells:               6
      Number of primitives:             10
      Number of atomic orbitals:        10
      Number of basis functions:        10

      Number of irreps:                  1
      Integral cutoff                 0.00e+00
      Number of functions per irrep: [  10 ]

 OEINTS: Overlap, kinetic, potential, dipole, and quadrupole integrals
         stored in file 35.

      Computing two-electron integrals...done
      Computed 512 non-zero two-electron integrals.
        Stored in file 33.

	Batch   1 pq = [       0,      55] index = [             0,1540]
  ==> DiskJK: Disk-Based J/K Matrices <==

    J tasked:                  Yes
    K tasked:                  Yes
    wK tasked:                  No
    Memory (MB):               183
    Schwarz Cutoff:          1E-12

   @RHF iter   6:    -1.00219274396530    5.78377e-06   2.06554e-06 DIIS
   @RHF iter   7:    -1.00219274425277   -2.87470e-10   3.23279e-07 DIIS

  ==> Post-Iterations <==

    Orbital Energies (a.u.)
    -----------------------

    Doubly Occupied:                                                      

       1A     -0.439163  

    Virtual:                                                              

       2A      0.040297     3A      0.643663     4A      0.675709  
       5A      1.277133     6A      1.383016     7A      1.383016  
       8A      1.617143     9A      1.617143    10A      2.132723  

    Final Occupation by Irrep:
              A 
    DOCC [     1 ]

  Energy converged.

  @RHF Final Energy:    -1.00219274425277

   => Energetics <=

    Nuclear Repulsion Energy =              0.3527848057266667
    One-Electron Energy =                  -1.8316287785853653
    Two-Electron Energy =                   0.4766512286059315
    DFT Exchange-Correlation Energy =       0.0000000000000000
    Empirical Dispersion Energy =           0.0000000000000000
    PCM Polarization Energy =               0.0000000000000000
    EFP Energy =                            0.0000000000000000
    Total Energy =                         -1.0021927442527672

    Alert: EFP and PCM quantities not currently incorporated into SCF psivars.

Properties will be evaluated at   0.000000,   0.000000,   0.000000 Bohr
  ==> Properties <==


Properties computed using the SCF density matrix

  Nuclear Dipole Moment: (a.u.)
     X:     0.0000      Y:     0.0000      Z:     0.0000

  Electronic Dipole Moment: (a.u.)
     X:     0.0000      Y:    -0.0000      Z:     0.0000

  Dipole Moment: (a.u.)
     X:     0.0000      Y:    -0.0000      Z:     0.0000     Total:     0.0000

  Dipole Moment: (Debye)
     X:     0.0000      Y:    -0.0000      Z:     0.0000     Total:     0.0000


  Saving occupied orbitals to File 180.

*** tstop() called on Kevins-MacBook-Pro.local at Sun Apr 12 15:46:00 2015
Module time:
	user time   =       0.22 seconds =       0.00 minutes
	system time =       0.01 seconds =       0.00 minutes
	total time  =          0 seconds =       0.00 minutes
Total time:
	user time   =       0.23 seconds =       0.00 minutes
	system time =       0.01 seconds =       0.00 minutes
	total time  =          0 seconds =       0.00 minutes

*** tstart() called on Kevins-MacBook-Pro.local
*** at Sun Apr 12 15:46:00 2015


         ---------------------------------------------------------
                                   SCF
            by Justin Turney, Rob Parrish, and Andy Simmonett
                              RHF Reference
                        1 Threads,    256 MiB Core
         ---------------------------------------------------------

  ==> Geometry <==

    Molecular point group: c1
    Full point group: D_inf_h

    Geometry (in Angstrom), charge = 0, multiplicity = 1:

       Center              X                  Y                   Z       
    ------------   -----------------  -----------------  -----------------
           H          0.000000000000     0.000000000000    -0.750000000000
           H          0.000000000000     0.000000000000     0.750000000000

  Running in c1 symmetry.

  Rotational constants: A = ************  B =     14.86821  C =     14.86821 [cm^-1]
  Rotational constants: A = ************  B = 445737.86910  C = 445737.86910 [MHz]
  Nuclear repulsion =    0.352784805726667

  Charge       = 0
  Multiplicity = 1
  Electrons    = 2
  Nalpha       = 1
  Nbeta        = 1

  ==> Algorithm <==

  SCF Algorithm Type is PK.
  DIIS enabled.
  MOM disabled.
  Fractional occupation disabled.
  Guess Type is CORE.
  Energy threshold   = 1.00e-08
  Density threshold  = 1.00e-08
  Integral threshold = 0.00e+00

  ==> Primary Basis <==

  Basis Set: CC-PVDZ
    Number of shells: 6
    Number of basis function: 10
    Number of Cartesian functions: 10
    Spherical Harmonics?: true
    Max angular momentum: 1

  ==> Pre-Iterations <==

   -------------------------------------------------------
    Irrep   Nso     Nmo     Nalpha   Nbeta   Ndocc  Nsocc
   -------------------------------------------------------
     A         10      10       0       0       0       0
   -------------------------------------------------------
    Total      10      10       1       1       1       0
   -------------------------------------------------------

  Starting with a DF guess...

 OEINTS: Overlap, kinetic, potential, dipole, and quadrupole integrals
         stored in file 35.

  ==> Integral Setup <==

  ==> DFJK: Density-Fitted J/K Matrices <==

    J tasked:                  Yes
    K tasked:                  Yes
    wK tasked:                  No
    OpenMP threads:              1
    Integrals threads:           1
    Memory (MB):               183
    Algorithm:                Core
    Integral Cache:           NONE
    Schwarz Cutoff:          1E-12
    Fitting Condition:       1E-12

   => Auxiliary Basis Set <=

  Basis Set: 
    Number of shells: 18
    Number of basis function: 46
    Number of Cartesian functions: 50
    Spherical Harmonics?: true
    Max angular momentum: 2

  Minimum eigenvalue in the overlap matrix is 1.7423316118E-01.
  Using Symmetric Orthogonalization.
  SCF Guess: Core (One-Electron) Hamiltonian.

  ==> Iterations <==

                           Total Energy        Delta E     RMS |[F,P]|

   @DF-RHF iter   1:    -0.96950381100609   -9.69504e-01   1.73518e-02 
   @DF-RHF iter   2:    -1.00120441217792   -3.17006e-02   2.99924e-03 DIIS
   @DF-RHF iter   3:    -1.00219757730534   -9.93165e-04   1.09185e-04 DIIS
   @DF-RHF iter   4:    -1.00219852719153   -9.49886e-07   2.19459e-06 DIIS
   @DF-RHF iter   5:    -1.00219852773054   -5.39008e-10   4.78231e-10 DIIS

  DF guess converged.

  ==> Integral Setup <==

 MINTS: Wrapper to libmints.
   by Justin Turney

   Calculation information:
      Number of atoms:                   2
      Number of AO shells:               6
      Number of SO shells:               6
      Number of primitives:             10
      Number of atomic orbitals:        10
      Number of basis functions:        10

      Number of irreps:                  1
      Integral cutoff                 0.00e+00
      Number of functions per irrep: [  10 ]

 OEINTS: Overlap, kinetic, potential, dipole, and quadrupole integrals
         stored in file 35.

      Computing two-electron integrals...done
      Computed 512 non-zero two-electron integrals.
        Stored in file 33.

	Batch   1 pq = [       0,      55] index = [             0,1540]
  ==> DiskJK: Disk-Based J/K Matrices <==

    J tasked:                  Yes
    K tasked:                  Yes
    wK tasked:                  No
    Memory (MB):               183
    Schwarz Cutoff:          1E-12

   @RHF iter   6:    -1.00219274396530    5.78377e-06   2.06554e-06 DIIS
   @RHF iter   7:    -1.00219274425277   -2.87472e-10   3.23279e-07 DIIS
   @RHF iter   8:    -1.00219274426003   -7.26619e-12   6.85301e-09 DIIS

  ==> Post-Iterations <==

    Orbital Energies (a.u.)
    -----------------------

    Doubly Occupied:                                                      

       1A     -0.439163  

    Virtual:                                                              

       2A      0.040297     3A      0.643663     4A      0.675709  
       5A      1.277133     6A      1.383016     7A      1.383016  
       8A      1.617143     9A      1.617143    10A      2.132723  

    Final Occupation by Irrep:
              A 
    DOCC [     1 ]

  Energy converged.

  @RHF Final Energy:    -1.00219274426003

   => Energetics <=

    Nuclear Repulsion Energy =              0.3527848057266667
    One-Electron Energy =                  -1.8316286126695487
    Two-Electron Energy =                   0.4766510626828476
    DFT Exchange-Correlation Energy =       0.0000000000000000
    Empirical Dispersion Energy =           0.0000000000000000
    PCM Polarization Energy =               0.0000000000000000
    EFP Energy =                            0.0000000000000000
    Total Energy =                         -1.0021927442600345

    Alert: EFP and PCM quantities not currently incorporated into SCF psivars.

Properties will be evaluated at   0.000000,   0.000000,   0.000000 Bohr
  ==> Properties <==


Properties computed using the SCF density matrix

  Nuclear Dipole Moment: (a.u.)
     X:     0.0000      Y:     0.0000      Z:     0.0000

  Electronic Dipole Moment: (a.u.)
     X:    -0.0000      Y:     0.0000      Z:     0.0000

  Dipole Moment: (a.u.)
     X:    -0.0000      Y:     0.0000      Z:     0.0000     Total:     0.0000

  Dipole Moment: (Debye)
     X:    -0.0000      Y:     0.0000      Z:     0.0000     Total:     0.0000


  Saving occupied orbitals to File 180.

*** tstop() called on Kevins-MacBook-Pro.local at Sun Apr 12 15:46:00 2015
Module time:
	user time   =       0.20 seconds =       0.00 minutes
	system time =       0.01 seconds =       0.00 minutes
	total time  =          0 seconds =       0.00 minutes
Total time:
	user time   =       0.44 seconds =       0.01 minutes
	system time =       0.02 seconds =       0.00 minutes
	total time  =          0 seconds =       0.00 minutes
Reading options from the SCF block
Calling plugin scf.so.
    Molecular point group: c1
    Full point group: D_inf_h

    Geometry (in Angstrom), charge = 0, multiplicity = 1:

       Center              X                  Y                   Z       
    ------------   -----------------  -----------------  -----------------
           H          0.000000000000     0.000000000000    -0.750000000000
           H          0.000000000000     0.000000000000     0.750000000000


    Nuclear repulsion energy:       0.35278481

  ## Overlap (Symmetry 0) ##
  Irrep: 1 Size: 10 x 10

                 1                   2                   3                   4                   5

    1     1.00000000000000     0.68486025149275     0.00000000000000     0.00000000000000     0.00000000000000
    2     0.68486025149275     1.00000000000000     0.00000000000000     0.00000000000000     0.00000000000000
    3     0.00000000000000     0.00000000000000     1.00000000000000     0.00000000000000     0.00000000000000
    4     0.00000000000000     0.00000000000000     0.00000000000000     1.00000000000000     0.00000000000000
    5     0.00000000000000     0.00000000000000     0.00000000000000     0.00000000000000     1.00000000000000
    6     0.12555625473227     0.31213121488208     0.16545621623524     0.00000000000000     0.00000000000000
    7     0.31213121488208     0.61254758384786     0.17631880419604     0.00000000000000     0.00000000000000
    8    -0.16545621623524    -0.17631880419604    -0.26093418508064     0.00000000000000     0.00000000000000
    9     0.00000000000000     0.00000000000000     0.00000000000000     0.05389677315178     0.00000000000000
   10     0.00000000000000     0.00000000000000     0.00000000000000     0.00000000000000     0.05389677315178

                 6                   7                   8                   9                  10

    1     0.12555625473227     0.31213121488208    -0.16545621623524     0.00000000000000     0.00000000000000
    2     0.31213121488208     0.61254758384786    -0.17631880419604     0.00000000000000     0.00000000000000
    3     0.16545621623524     0.17631880419604    -0.26093418508064     0.00000000000000     0.00000000000000
    4     0.00000000000000     0.00000000000000     0.00000000000000     0.05389677315178     0.00000000000000
    5     0.00000000000000     0.00000000000000     0.00000000000000     0.00000000000000     0.05389677315178
    6     1.00000000000000     0.68486025149275    -0.00000000000000     0.00000000000000     0.00000000000000
    7     0.68486025149275     1.00000000000000    -0.00000000000000     0.00000000000000     0.00000000000000
    8    -0.00000000000000    -0.00000000000000     1.00000000000000     0.00000000000000     0.00000000000000
    9     0.00000000000000     0.00000000000000     0.00000000000000     1.00000000000000     0.00000000000000
   10     0.00000000000000     0.00000000000000     0.00000000000000     0.00000000000000     1.00000000000000



  ## Kinetic (Symmetry 0) ##
  Irrep: 1 Size: 10 x 10

                 1                   2                   3                   4                   5

    1     0.96945722711242     0.20123413106538     0.00000000000000     0.00000000000000     0.00000000000000
    2     0.20123413106538     0.18300000000000     0.00000000000000     0.00000000000000     0.00000000000000
    3     0.00000000000000     0.00000000000000     1.81750000000000     0.00000000000000     0.00000000000000
    4     0.00000000000000     0.00000000000000     0.00000000000000     1.81750000000000     0.00000000000000
    5     0.00000000000000     0.00000000000000     0.00000000000000     0.00000000000000     1.81750000000000
    6    -0.02953697840357     0.04344078209494     0.00528400889563     0.00000000000000     0.00000000000000
    7     0.04344078209494     0.07546849903915     0.06117603179997     0.00000000000000     0.00000000000000
    8    -0.00528400889563    -0.06117603179997    -0.14907858121082     0.00000000000000     0.00000000000000
    9     0.00000000000000     0.00000000000000     0.00000000000000    -0.01648366811412     0.00000000000000
   10     0.00000000000000     0.00000000000000     0.00000000000000     0.00000000000000    -0.01648366811412

                 6                   7                   8                   9                  10

    1    -0.02953697840357     0.04344078209494    -0.00528400889563     0.00000000000000     0.00000000000000
    2     0.04344078209494     0.07546849903915    -0.06117603179997     0.00000000000000     0.00000000000000
    3     0.00528400889563     0.06117603179997    -0.14907858121082     0.00000000000000     0.00000000000000
    4     0.00000000000000     0.00000000000000     0.00000000000000    -0.01648366811412     0.00000000000000
    5     0.00000000000000     0.00000000000000     0.00000000000000     0.00000000000000    -0.01648366811412
    6     0.96945722711242     0.20123413106538    -0.00000000000000     0.00000000000000     0.00000000000000
    7     0.20123413106538     0.18300000000000    -0.00000000000000     0.00000000000000     0.00000000000000
    8    -0.00000000000000    -0.00000000000000     1.81750000000000     0.00000000000000     0.00000000000000
    9     0.00000000000000     0.00000000000000     0.00000000000000     1.81750000000000     0.00000000000000
   10     0.00000000000000     0.00000000000000     0.00000000000000     0.00000000000000     1.81750000000000



  ## Potential (Symmetry 0) ##
  Irrep: 1 Size: 10 x 10

                 1                   2                   3                   4                   5

    1    -1.73060997640687    -0.89077011804396    -0.07827815482460     0.00000000000000     0.00000000000000
    2    -0.89077011804396    -0.89334021504932    -0.07319641202443     0.00000000000000     0.00000000000000
    3    -0.07827815482460    -0.07319641202443    -1.29004978757020     0.00000000000000     0.00000000000000
    4     0.00000000000000     0.00000000000000     0.00000000000000    -1.24476715649066     0.00000000000000
    5     0.00000000000000     0.00000000000000     0.00000000000000     0.00000000000000    -1.24476715649066
    6    -0.17548660385617    -0.41097574339878    -0.22466927002770     0.00000000000000     0.00000000000000
    7    -0.41097574339878    -0.58593942311817    -0.23386637789362     0.00000000000000     0.00000000000000
    8     0.22466927002770     0.23386637789362     0.34742911081270     0.00000000000000     0.00000000000000
    9     0.00000000000000     0.00000000000000     0.00000000000000    -0.06340215447840     0.00000000000000
   10     0.00000000000000     0.00000000000000     0.00000000000000     0.00000000000000    -0.06340215447840

                 6                   7                   8                   9                  10

    1    -0.17548660385617    -0.41097574339878     0.22466927002770     0.00000000000000     0.00000000000000
    2    -0.41097574339878    -0.58593942311817     0.23386637789362     0.00000000000000     0.00000000000000
    3    -0.22466927002770    -0.23386637789362     0.34742911081270     0.00000000000000     0.00000000000000
    4     0.00000000000000     0.00000000000000     0.00000000000000    -0.06340215447840     0.00000000000000
    5     0.00000000000000     0.00000000000000     0.00000000000000     0.00000000000000    -0.06340215447840
    6    -1.73060997640687    -0.89077011804396     0.07827815482460     0.00000000000000     0.00000000000000
    7    -0.89077011804396    -0.89334021504932     0.07319641202443     0.00000000000000     0.00000000000000
    8     0.07827815482460     0.07319641202443    -1.29004978757020     0.00000000000000     0.00000000000000
    9     0.00000000000000     0.00000000000000     0.00000000000000    -1.24476715649066     0.00000000000000
   10     0.00000000000000     0.00000000000000     0.00000000000000     0.00000000000000    -1.24476715649066



  ## One Electron Ints (Symmetry 0) ##
  Irrep: 1 Size: 10 x 10

                 1                   2                   3                   4                   5

    1    -0.76115274929445    -0.68953598697857    -0.07827815482460     0.00000000000000     0.00000000000000
    2    -0.68953598697857    -0.71034021504932    -0.07319641202443     0.00000000000000     0.00000000000000
    3    -0.07827815482460    -0.07319641202443     0.52745021242980     0.00000000000000     0.00000000000000
    4     0.00000000000000     0.00000000000000     0.00000000000000     0.57273284350934     0.00000000000000
    5     0.00000000000000     0.00000000000000     0.00000000000000     0.00000000000000     0.57273284350934
    6    -0.20502358225974    -0.36753496130384    -0.21938526113207     0.00000000000000     0.00000000000000
    7    -0.36753496130384    -0.51047092407902    -0.17269034609365     0.00000000000000     0.00000000000000
    8     0.21938526113207     0.17269034609365     0.19835052960188     0.00000000000000     0.00000000000000
    9     0.00000000000000     0.00000000000000     0.00000000000000    -0.07988582259252     0.00000000000000
   10     0.00000000000000     0.00000000000000     0.00000000000000     0.00000000000000    -0.07988582259252

                 6                   7                   8                   9                  10

    1    -0.20502358225974    -0.36753496130384     0.21938526113207     0.00000000000000     0.00000000000000
    2    -0.36753496130384    -0.51047092407902     0.17269034609365     0.00000000000000     0.00000000000000
    3    -0.21938526113207    -0.17269034609365     0.19835052960188     0.00000000000000     0.00000000000000
    4     0.00000000000000     0.00000000000000     0.00000000000000    -0.07988582259252     0.00000000000000
    5     0.00000000000000     0.00000000000000     0.00000000000000     0.00000000000000    -0.07988582259252
    6    -0.76115274929445    -0.68953598697857     0.07827815482460     0.00000000000000     0.00000000000000
    7    -0.68953598697857    -0.71034021504932     0.07319641202443     0.00000000000000     0.00000000000000
    8     0.07827815482460     0.07319641202443     0.52745021242980     0.00000000000000     0.00000000000000
    9     0.00000000000000     0.00000000000000     0.00000000000000     0.57273284350934     0.00000000000000
   10     0.00000000000000     0.00000000000000     0.00000000000000     0.00000000000000     0.57273284350934




	There are 0 unique integrals

  ## Fock (Symmetry 0) ##
  Irrep: 1 Size: 10 x 10

                 1                   2                   3                   4                   5

    1    -0.51003884020079    -0.34783963574447    -0.04656953044250     0.00000000000000     0.00000000000000
    2    -0.34783963574447    -0.32773436426911     0.11713388422765    -0.00000000000000     0.00000000000000
    3    -0.04656953044250     0.11713388422765     0.70687203174529    -0.00000000000000     0.00000000000000
    4     0.00000000000000    -0.00000000000000    -0.00000000000000     0.57871953203530     0.00000000000000
    5     0.00000000000000     0.00000000000000     0.00000000000000     0.00000000000000     0.57871953203530
    6    -0.01706065498127    -0.06293215743860    -0.14792069961039     0.00000000000000     0.00000000000000
    7    -0.06293215743860    -0.12971215273066    -0.17034852506312     0.00000000000000     0.00000000000000
    8     0.14792069961039     0.17034852506312     0.40928053994700    -0.00000000000000     0.00000000000000
    9     0.00000000000000     0.00000000000000     0.00000000000000    -0.11107693792914     0.00000000000000
   10     0.00000000000000     0.00000000000000     0.00000000000000     0.00000000000000    -0.11107693792914

                 6                   7                   8                   9                  10

    1    -0.01706065498127    -0.06293215743860     0.14792069961039     0.00000000000000     0.00000000000000
    2    -0.06293215743860    -0.12971215273066     0.17034852506312     0.00000000000000     0.00000000000000
    3    -0.14792069961039    -0.17034852506312     0.40928053994700     0.00000000000000     0.00000000000000
    4     0.00000000000000     0.00000000000000    -0.00000000000000    -0.11107693792914     0.00000000000000
    5     0.00000000000000     0.00000000000000     0.00000000000000     0.00000000000000    -0.11107693792914
    6    -0.51003884020079    -0.34783963574447     0.04656953044250     0.00000000000000     0.00000000000000
    7    -0.34783963574447    -0.32773436426911    -0.11713388422765    -0.00000000000000     0.00000000000000
    8     0.04656953044250    -0.11713388422765     0.70687203174529     0.00000000000000     0.00000000000000
    9     0.00000000000000    -0.00000000000000     0.00000000000000     0.57871953203530     0.00000000000000
   10     0.00000000000000     0.00000000000000     0.00000000000000     0.00000000000000     0.57871953203530



  ## C (Symmetry 0) ##
  Irrep: 1 Size: 10 x 10

                 1                   2                   3                   4                   5

    1     0.36122298865627     0.39152027592958     0.18341913034875     0.02629619206729     0.01910240414279
    2     0.59275737063980     0.40772350820363    -0.21653507048829    -0.03303789367606    -0.34377193858217
    3    -0.41260833869403     0.59630829985020    -0.16321956539694     0.11631149826363    -0.09420158686129
    4     0.39827415958869    -0.57537321150526     0.10684377988381    -0.00000000000000     0.01909006202180
    5     0.17304288286247    -0.04729951556845    -0.70360062156394    -0.00000000000000     0.00000000000000
    6     0.04269365888320    -0.00788099207350     0.00626756831609    -0.98242179346655    -0.09819587287213
    7    -0.23332042638152    -0.25502539754506     0.06908941883109     0.61771550678188     0.95022208519155
    8     0.02781671606826     0.15310506119915    -0.02989556481479     0.72513339098073    -0.06449259704956
    9    -0.01074065171670     0.01551665636124    -0.00288136149484     0.00000000000000    -0.70787868453133
   10     0.01330823722349     0.14238801248988     0.71188725432382    -0.00000000000000     0.00000000000000

                 6                   7                   8                   9                  10

    1     0.98874691010840     0.80715243994491    -0.08249655501973    -0.03906901014939     0.01910240414279
    2    -1.23900295881877    -0.80551870243356    -0.07806082221762    -0.21008673797170    -0.34377193858217
    3    -0.52447529565974     0.52221470147729     0.14522837652708    -0.10521433382824    -0.09420158686129
    4    -0.39827415958868     0.57537321150526     0.10684377988381     0.00000000000000    -0.01909006202180
    5     0.17401307972238    -0.03968293981240     0.66620050974873    -0.00000000000000     0.00000000000000
    6     0.01555351174077    -0.02585690933001    -0.01063242748844    -0.98432540724469    -0.09819587287213
    7     0.36867204923540     0.14369635123323     0.02772701938111     0.75309556534873     0.95022208519155
    8    -0.11848190172905     0.05620610798182     0.00636684699155    -0.76629409683223    -0.06449259704956
    9     0.01074065171670    -0.01551665636124    -0.00288136149484    -0.00000000000000     0.70787868453133
   10    -0.02266763735173    -0.14004227090404     0.67494647742840     0.00000000000000    -0.00000000000000




 In Bisection function HOMO = -0.931  LUMO =  1.177

 0.12322 = (-0.93088 + 1.17733)/2.0
 sum -  nocc_ = 2.95279885
 On Iteration in Bisection 0
 a: 2.95280  b:-0.47533

 -0.40383 = (-0.93088 + 0.12322)/2.0
 sum -  nocc_ = 1.00236050
 On Iteration in Bisection 1
 a: 1.00236  b:-0.47533

 -0.66735 = (-0.93088 + -0.40383)/2.0
 sum -  nocc_ = 0.60343922
 On Iteration in Bisection 2
 a: 0.60344  b:-0.47533

 -0.79912 = (-0.93088 + -0.66735)/2.0
 sum -  nocc_ = 0.05743506
 On Iteration in Bisection 3
 a: 0.05744  b:-0.47533

 -0.86500 = (-0.93088 + -0.79912)/2.0
 sum -  nocc_ = -0.19430687
 On Iteration in Bisection 4
 a: -0.19431  b:-0.47533

 -0.83206 = (-0.86500 + -0.79912)/2.0
 sum -  nocc_ = -0.06612396
 On Iteration in Bisection 5
 a: -0.06612  b:-0.19431

 -0.81559 = (-0.83206 + -0.79912)/2.0
 sum -  nocc_ = -0.00430346
 On Iteration in Bisection 6
 a: -0.00430  b:-0.06612

 -0.80735 = (-0.81559 + -0.79912)/2.0
 sum -  nocc_ = 0.02650148
 On Iteration in Bisection 7
 a: 0.02650  b:-0.00430

 -0.81147 = (-0.81559 + -0.80735)/2.0
 sum -  nocc_ = 0.01109221
 On Iteration in Bisection 8
 a: 0.01109  b:-0.00430

 -0.81353 = (-0.81559 + -0.81147)/2.0
 sum -  nocc_ = 0.00339385
 On Iteration in Bisection 9
 a: 0.00339  b:-0.00430

 -0.81456 = (-0.81559 + -0.81353)/2.0
 sum -  nocc_ = -0.00045479
 On Iteration in Bisection 10
 a: -0.00045  b:-0.00430

 -0.81404 = (-0.81456 + -0.81353)/2.0
 sum -  nocc_ = 0.00146952
 On Iteration in Bisection 11
 a: 0.00147  b:-0.00045

 -0.81430 = (-0.81456 + -0.81404)/2.0
 sum -  nocc_ = 0.00050736
 On Iteration in Bisection 12
 a: 0.00051  b:-0.00045

 -0.81443 = (-0.81456 + -0.81430)/2.0
 sum -  nocc_ = 0.00002629
 On Iteration in Bisection 13
 a: 0.00003  b:-0.00045

 -0.81449 = (-0.81456 + -0.81443)/2.0
 sum -  nocc_ = -0.00021425
 On Iteration in Bisection 14
 a: -0.00021  b:-0.00045

 -0.81446 = (-0.81449 + -0.81443)/2.0
 sum -  nocc_ = -0.00009398
 On Iteration in Bisection 15
 a: -0.00009  b:-0.00021

 -0.81445 = (-0.81446 + -0.81443)/2.0
 sum -  nocc_ = -0.00003385
 On Iteration in Bisection 16
 a: -0.00003  b:-0.00009

 -0.81444 = (-0.81445 + -0.81443)/2.0
 sum -  nocc_ = -0.00000378
 On Iteration in Bisection 17
 a: -0.00000  b:-0.00003

 -0.81443 = (-0.81444 + -0.81443)/2.0
 sum -  nocc_ = 0.00001125
 On Iteration in Bisection 18
 a: 0.00001  b:-0.00000

 -0.81444 = (-0.81444 + -0.81443)/2.0
 sum -  nocc_ = 0.00000374
 On Iteration in Bisection 19
 a: 0.00000  b:-0.00000

 -0.81444 = (-0.81444 + -0.81444)/2.0
 sum -  nocc_ = -0.00000002
 On Iteration in Bisection 20
 a: -0.00000  b:-0.00000

 -0.81444 = (-0.81444 + -0.81444)/2.0
 sum -  nocc_ = 0.00000186
 On Iteration in Bisection 21
 a: 0.00000  b:-0.00000

 -0.81444 = (-0.81444 + -0.81444)/2.0
 sum -  nocc_ = 0.00000092
 On Iteration in Bisection 22
 a: 0.00000  b:-0.00000

 -0.81444 = (-0.81444 + -0.81444)/2.0
 sum -  nocc_ = 0.00000045
 On Iteration in Bisection 23
 a: 0.00000  b:-0.00000

 -0.81444 = (-0.81444 + -0.81444)/2.0
 sum -  nocc_ = 0.00000021
 On Iteration in Bisection 24
 a: 0.00000  b:-0.00000

 -0.81444 = (-0.81444 + -0.81444)/2.0
 sum -  nocc_ = 0.00000010
 On Iteration in Bisection 25
 a: 0.00000  b:-0.00000

 -0.81444 = (-0.81444 + -0.81444)/2.0
 sum -  nocc_ = 0.00000004
 On Iteration in Bisection 26
 a: 0.00000  b:-0.00000

 -0.81444 = (-0.81444 + -0.81444)/2.0
 sum -  nocc_ = 0.00000001
 ef = -0.81444 sum = 1.00000 

 Iter: 0  T:    20000.000  val:-0.814437  sumni 0.00000
 ne = 1.0000

Nuc Replusion =       0.352784805727
 1st iteration =      -0.400565529085
 In Bisection function HOMO = -0.273  LUMO =  2.144

 0.93547 = (-0.27350 + 2.14443)/2.0
 sum -  nocc_ = 2.76126018
 On Iteration in Bisection 0
 a: 2.76126  b:-0.49086

 0.33098 = (-0.27350 + 0.93547)/2.0
 sum -  nocc_ = 1.19149733
 On Iteration in Bisection 1
 a: 1.19150  b:-0.49086

 0.02874 = (-0.27350 + 0.33098)/2.0
 sum -  nocc_ = 0.51470966
 On Iteration in Bisection 2
 a: 0.51471  b:-0.49086

 -0.12238 = (-0.27350 + 0.02874)/2.0
 sum -  nocc_ = 0.00690746
 On Iteration in Bisection 3
 a: 0.00691  b:-0.49086

 -0.19794 = (-0.27350 + -0.12238)/2.0
 sum -  nocc_ = -0.20320125
 On Iteration in Bisection 4
 a: -0.20320  b:-0.49086

 -0.16016 = (-0.19794 + -0.12238)/2.0
 sum -  nocc_ = -0.09079305
 On Iteration in Bisection 5
 a: -0.09079  b:-0.20320

 -0.14127 = (-0.16016 + -0.12238)/2.0
 sum -  nocc_ = -0.04102231
 On Iteration in Bisection 6
 a: -0.04102  b:-0.09079

 -0.13182 = (-0.14127 + -0.12238)/2.0
 sum -  nocc_ = -0.01696064
 On Iteration in Bisection 7
 a: -0.01696  b:-0.04102

 -0.12710 = (-0.13182 + -0.12238)/2.0
 sum -  nocc_ = -0.00501957
 On Iteration in Bisection 8
 a: -0.00502  b:-0.01696

 -0.12474 = (-0.12710 + -0.12238)/2.0
 sum -  nocc_ = 0.00094354
 On Iteration in Bisection 9
 a: 0.00094  b:-0.00502

 -0.12592 = (-0.12710 + -0.12474)/2.0
 sum -  nocc_ = -0.00203784
 On Iteration in Bisection 10
 a: -0.00204  b:-0.00502

 -0.12533 = (-0.12592 + -0.12474)/2.0
 sum -  nocc_ = -0.00054714
 On Iteration in Bisection 11
 a: -0.00055  b:-0.00204

 -0.12503 = (-0.12533 + -0.12474)/2.0
 sum -  nocc_ = 0.00019820
 On Iteration in Bisection 12
 a: 0.00020  b:-0.00055

 -0.12518 = (-0.12533 + -0.12503)/2.0
 sum -  nocc_ = -0.00017447
 On Iteration in Bisection 13
 a: -0.00017  b:-0.00055

 -0.12511 = (-0.12518 + -0.12503)/2.0
 sum -  nocc_ = 0.00001187
 On Iteration in Bisection 14
 a: 0.00001  b:-0.00017

 -0.12515 = (-0.12518 + -0.12511)/2.0
 sum -  nocc_ = -0.00008130
 On Iteration in Bisection 15
 a: -0.00008  b:-0.00017

 -0.12513 = (-0.12515 + -0.12511)/2.0
 sum -  nocc_ = -0.00003472
 On Iteration in Bisection 16
 a: -0.00003  b:-0.00008

 -0.12512 = (-0.12513 + -0.12511)/2.0
 sum -  nocc_ = -0.00001143
 On Iteration in Bisection 17
 a: -0.00001  b:-0.00003

 -0.12511 = (-0.12512 + -0.12511)/2.0
 sum -  nocc_ = 0.00000022
 On Iteration in Bisection 18
 a: 0.00000  b:-0.00001

 -0.12512 = (-0.12512 + -0.12511)/2.0
 sum -  nocc_ = -0.00000560
 On Iteration in Bisection 19
 a: -0.00001  b:-0.00001

 -0.12511 = (-0.12512 + -0.12511)/2.0
 sum -  nocc_ = -0.00000269
 On Iteration in Bisection 20
 a: -0.00000  b:-0.00001

 -0.12511 = (-0.12511 + -0.12511)/2.0
 sum -  nocc_ = -0.00000124
 On Iteration in Bisection 21
 a: -0.00000  b:-0.00000

 -0.12511 = (-0.12511 + -0.12511)/2.0
 sum -  nocc_ = -0.00000051
 On Iteration in Bisection 22
 a: -0.00000  b:-0.00000

 -0.12511 = (-0.12511 + -0.12511)/2.0
 sum -  nocc_ = -0.00000014
 On Iteration in Bisection 23
 a: -0.00000  b:-0.00000

 -0.12511 = (-0.12511 + -0.12511)/2.0
 sum -  nocc_ = 0.00000004
 On Iteration in Bisection 24
 a: 0.00000  b:-0.00000

 -0.12511 = (-0.12511 + -0.12511)/2.0
 sum -  nocc_ = -0.00000005
 On Iteration in Bisection 25
 a: -0.00000  b:-0.00000

 -0.12511 = (-0.12511 + -0.12511)/2.0
 sum -  nocc_ = -0.00000001
 ef = -0.12511 sum = 1.00000 

 Iter: 0  T:    20000.000  val:-0.125113  sumni 0.00000
 ne = 1.0000

 iter:1  failiter:1  energy:     -1.096908457801  total:     -0.744123652074  error:     -0.094715713541
 In Bisection function HOMO = -0.370  LUMO =  2.156

 0.89324 = (-0.36982 + 2.15631)/2.0
 sum -  nocc_ = 2.85531302
 On Iteration in Bisection 0
 a: 2.85531  b:-0.49484

 0.26171 = (-0.36982 + 0.89324)/2.0
 sum -  nocc_ = 1.01032990
 On Iteration in Bisection 1
 a: 1.01033  b:-0.49484

 -0.05405 = (-0.36982 + 0.26171)/2.0
 sum -  nocc_ = 0.42479493
 On Iteration in Bisection 2
 a: 0.42479  b:-0.49484

 -0.21194 = (-0.36982 + -0.05405)/2.0
 sum -  nocc_ = -0.01731485
 On Iteration in Bisection 3
 a: -0.01731  b:-0.49484

 -0.13300 = (-0.21194 + -0.05405)/2.0
 sum -  nocc_ = 0.15592919
 On Iteration in Bisection 4
 a: 0.15593  b:-0.01731

 -0.17247 = (-0.21194 + -0.13300)/2.0
 sum -  nocc_ = 0.06231451
 On Iteration in Bisection 5
 a: 0.06231  b:-0.01731

 -0.19220 = (-0.21194 + -0.17247)/2.0
 sum -  nocc_ = 0.02184553
 On Iteration in Bisection 6
 a: 0.02185  b:-0.01731

 -0.20207 = (-0.21194 + -0.19220)/2.0
 sum -  nocc_ = 0.00224828
 On Iteration in Bisection 7
 a: 0.00225  b:-0.01731

 -0.20700 = (-0.21194 + -0.20207)/2.0
 sum -  nocc_ = -0.00751908
 On Iteration in Bisection 8
 a: -0.00752  b:-0.01731

 -0.20454 = (-0.20700 + -0.20207)/2.0
 sum -  nocc_ = -0.00263416
 On Iteration in Bisection 9
 a: -0.00263  b:-0.00752

 -0.20330 = (-0.20454 + -0.20207)/2.0
 sum -  nocc_ = -0.00019292
 On Iteration in Bisection 10
 a: -0.00019  b:-0.00263

 -0.20269 = (-0.20330 + -0.20207)/2.0
 sum -  nocc_ = 0.00102765
 On Iteration in Bisection 11
 a: 0.00103  b:-0.00019

 -0.20299 = (-0.20330 + -0.20269)/2.0
 sum -  nocc_ = 0.00041736
 On Iteration in Bisection 12
 a: 0.00042  b:-0.00019

 -0.20315 = (-0.20330 + -0.20299)/2.0
 sum -  nocc_ = 0.00011222
 On Iteration in Bisection 13
 a: 0.00011  b:-0.00019

 -0.20323 = (-0.20330 + -0.20315)/2.0
 sum -  nocc_ = -0.00004035
 On Iteration in Bisection 14
 a: -0.00004  b:-0.00019

 -0.20319 = (-0.20323 + -0.20315)/2.0
 sum -  nocc_ = 0.00003594
 On Iteration in Bisection 15
 a: 0.00004  b:-0.00004

 -0.20321 = (-0.20323 + -0.20319)/2.0
 sum -  nocc_ = -0.00000221
 On Iteration in Bisection 16
 a: -0.00000  b:-0.00004

 -0.20320 = (-0.20321 + -0.20319)/2.0
 sum -  nocc_ = 0.00001687
 On Iteration in Bisection 17
 a: 0.00002  b:-0.00000

 -0.20320 = (-0.20321 + -0.20320)/2.0
 sum -  nocc_ = 0.00000733
 On Iteration in Bisection 18
 a: 0.00001  b:-0.00000

 -0.20320 = (-0.20321 + -0.20320)/2.0
 sum -  nocc_ = 0.00000256
 On Iteration in Bisection 19
 a: 0.00000  b:-0.00000

 -0.20321 = (-0.20321 + -0.20320)/2.0
 sum -  nocc_ = 0.00000018
 On Iteration in Bisection 20
 a: 0.00000  b:-0.00000

 -0.20321 = (-0.20321 + -0.20321)/2.0
 sum -  nocc_ = -0.00000101
 On Iteration in Bisection 21
 a: -0.00000  b:-0.00000

 -0.20321 = (-0.20321 + -0.20321)/2.0
 sum -  nocc_ = -0.00000042
 On Iteration in Bisection 22
 a: -0.00000  b:-0.00000

 -0.20321 = (-0.20321 + -0.20321)/2.0
 sum -  nocc_ = -0.00000012
 On Iteration in Bisection 23
 a: -0.00000  b:-0.00000

 -0.20321 = (-0.20321 + -0.20321)/2.0
 sum -  nocc_ = 0.00000003
 On Iteration in Bisection 24
 a: 0.00000  b:-0.00000

 -0.20321 = (-0.20321 + -0.20321)/2.0
 sum -  nocc_ = -0.00000005
 On Iteration in Bisection 25
 a: -0.00000  b:-0.00000

 -0.20321 = (-0.20321 + -0.20321)/2.0
 sum -  nocc_ = -0.00000001
 ef = -0.20321 sum = 1.00000 

 Iter: 1  T:    20000.000  val:-0.203205  sumni 0.00000
 ne = 1.0000

 iter:2  failiter:2  energy:     -1.244290798903  total:     -0.891505993177  error:     -0.147382341103
 In Bisection function HOMO = -0.425  LUMO =  2.123

 0.84937 = (-0.42476 + 2.12350)/2.0
 sum -  nocc_ = 2.91098624
 On Iteration in Bisection 0
 a: 2.91099  b:-0.49909

 0.21231 = (-0.42476 + 0.84937)/2.0
 sum -  nocc_ = 0.95714383
 On Iteration in Bisection 1
 a: 0.95714  b:-0.49909

 -0.10622 = (-0.42476 + 0.21231)/2.0
 sum -  nocc_ = 0.11604078
 On Iteration in Bisection 2
 a: 0.11604  b:-0.49909

 -0.26549 = (-0.42476 + -0.10622)/2.0
 sum -  nocc_ = -0.06366100
 On Iteration in Bisection 3
 a: -0.06366  b:-0.49909

 -0.18586 = (-0.26549 + -0.10622)/2.0
 sum -  nocc_ = 0.01571366
 On Iteration in Bisection 4
 a: 0.01571  b:-0.06366

 -0.22567 = (-0.26549 + -0.18586)/2.0
 sum -  nocc_ = -0.02060925
 On Iteration in Bisection 5
 a: -0.02061  b:-0.06366

 -0.20577 = (-0.22567 + -0.18586)/2.0
 sum -  nocc_ = -0.00235129
 On Iteration in Bisection 6
 a: -0.00235  b:-0.02061

 -0.19581 = (-0.20577 + -0.18586)/2.0
 sum -  nocc_ = 0.00661349
 On Iteration in Bisection 7
 a: 0.00661  b:-0.00235

 -0.20079 = (-0.20577 + -0.19581)/2.0
 sum -  nocc_ = 0.00212566
 On Iteration in Bisection 8
 a: 0.00213  b:-0.00235

 -0.20328 = (-0.20577 + -0.20079)/2.0
 sum -  nocc_ = -0.00011274
 On Iteration in Bisection 9
 a: -0.00011  b:-0.00235

 -0.20203 = (-0.20328 + -0.20079)/2.0
 sum -  nocc_ = 0.00100630
 On Iteration in Bisection 10
 a: 0.00101  b:-0.00011

 -0.20266 = (-0.20328 + -0.20203)/2.0
 sum -  nocc_ = 0.00044676
 On Iteration in Bisection 11
 a: 0.00045  b:-0.00011

 -0.20297 = (-0.20328 + -0.20266)/2.0
 sum -  nocc_ = 0.00016701
 On Iteration in Bisection 12
 a: 0.00017  b:-0.00011

 -0.20312 = (-0.20328 + -0.20297)/2.0
 sum -  nocc_ = 0.00002713
 On Iteration in Bisection 13
 a: 0.00003  b:-0.00011

 -0.20320 = (-0.20328 + -0.20312)/2.0
 sum -  nocc_ = -0.00004281
 On Iteration in Bisection 14
 a: -0.00004  b:-0.00011

 -0.20316 = (-0.20320 + -0.20312)/2.0
 sum -  nocc_ = -0.00000784
 On Iteration in Bisection 15
 a: -0.00001  b:-0.00004

 -0.20314 = (-0.20316 + -0.20312)/2.0
 sum -  nocc_ = 0.00000965
 On Iteration in Bisection 16
 a: 0.00001  b:-0.00001

 -0.20315 = (-0.20316 + -0.20314)/2.0
 sum -  nocc_ = 0.00000090
 On Iteration in Bisection 17
 a: 0.00000  b:-0.00001

 -0.20316 = (-0.20316 + -0.20315)/2.0
 sum -  nocc_ = -0.00000347
 On Iteration in Bisection 18
 a: -0.00000  b:-0.00001

 -0.20315 = (-0.20316 + -0.20315)/2.0
 sum -  nocc_ = -0.00000128
 On Iteration in Bisection 19
 a: -0.00000  b:-0.00000

 -0.20315 = (-0.20315 + -0.20315)/2.0
 sum -  nocc_ = -0.00000019
 On Iteration in Bisection 20
 a: -0.00000  b:-0.00000

 -0.20315 = (-0.20315 + -0.20315)/2.0
 sum -  nocc_ = 0.00000036
 On Iteration in Bisection 21
 a: 0.00000  b:-0.00000

 -0.20315 = (-0.20315 + -0.20315)/2.0
 sum -  nocc_ = 0.00000009
 On Iteration in Bisection 22
 a: 0.00000  b:-0.00000

 -0.20315 = (-0.20315 + -0.20315)/2.0
 sum -  nocc_ = -0.00000005
 On Iteration in Bisection 23
 a: -0.00000  b:-0.00000

 -0.20315 = (-0.20315 + -0.20315)/2.0
 sum -  nocc_ = 0.00000002
 On Iteration in Bisection 24
 a: 0.00000  b:-0.00000

 -0.20315 = (-0.20315 + -0.20315)/2.0
 sum -  nocc_ = -0.00000002
 On Iteration in Bisection 25
 a: -0.00000  b:-0.00000

 -0.20315 = (-0.20315 + -0.20315)/2.0
 sum -  nocc_ = -0.00000000
 ef = -0.20315 sum = 1.00000 

 Iter: 2  T:    20000.000  val:-0.203152  sumni 0.00000
 ne = 1.0000

 iter:3  failiter:3  energy:     -1.319440127344  total:     -0.966655321617  error:     -0.075149328440
 In Bisection function HOMO = -0.433  LUMO =  2.128

 0.84755 = (-0.43319 + 2.12829)/2.0
 sum -  nocc_ = 2.90480637
 On Iteration in Bisection 0
 a: 2.90481  b:-0.49934

 0.20718 = (-0.43319 + 0.84755)/2.0
 sum -  nocc_ = 0.94352490
 On Iteration in Bisection 1
 a: 0.94352  b:-0.49934

 -0.11301 = (-0.43319 + 0.20718)/2.0
 sum -  nocc_ = 0.08728324
 On Iteration in Bisection 2
 a: 0.08728  b:-0.49934

 -0.27310 = (-0.43319 + -0.11301)/2.0
 sum -  nocc_ = -0.06575344
 On Iteration in Bisection 3
 a: -0.06575  b:-0.49934

 -0.19305 = (-0.27310 + -0.11301)/2.0
 sum -  nocc_ = 0.00629590
 On Iteration in Bisection 4
 a: 0.00630  b:-0.06575

 -0.23308 = (-0.27310 + -0.19305)/2.0
 sum -  nocc_ = -0.02543321
 On Iteration in Bisection 5
 a: -0.02543  b:-0.06575

 -0.21307 = (-0.23308 + -0.19305)/2.0
 sum -  nocc_ = -0.00917737
 On Iteration in Bisection 6
 a: -0.00918  b:-0.02543

 -0.20306 = (-0.21307 + -0.19305)/2.0
 sum -  nocc_ = -0.00142554
 On Iteration in Bisection 7
 a: -0.00143  b:-0.00918

 -0.19806 = (-0.20306 + -0.19305)/2.0
 sum -  nocc_ = 0.00242871
 On Iteration in Bisection 8
 a: 0.00243  b:-0.00143

 -0.20056 = (-0.20306 + -0.19806)/2.0
 sum -  nocc_ = 0.00050125
 On Iteration in Bisection 9
 a: 0.00050  b:-0.00143

 -0.20181 = (-0.20306 + -0.20056)/2.0
 sum -  nocc_ = -0.00046207
 On Iteration in Bisection 10
 a: -0.00046  b:-0.00143

 -0.20118 = (-0.20181 + -0.20056)/2.0
 sum -  nocc_ = 0.00001959
 On Iteration in Bisection 11
 a: 0.00002  b:-0.00046

 -0.20150 = (-0.20181 + -0.20118)/2.0
 sum -  nocc_ = -0.00022124
 On Iteration in Bisection 12
 a: -0.00022  b:-0.00046

 -0.20134 = (-0.20150 + -0.20118)/2.0
 sum -  nocc_ = -0.00010082
 On Iteration in Bisection 13
 a: -0.00010  b:-0.00022

 -0.20126 = (-0.20134 + -0.20118)/2.0
 sum -  nocc_ = -0.00004062
 On Iteration in Bisection 14
 a: -0.00004  b:-0.00010

 -0.20122 = (-0.20126 + -0.20118)/2.0
 sum -  nocc_ = -0.00001051
 On Iteration in Bisection 15
 a: -0.00001  b:-0.00004

 -0.20120 = (-0.20122 + -0.20118)/2.0
 sum -  nocc_ = 0.00000454
 On Iteration in Bisection 16
 a: 0.00000  b:-0.00001

 -0.20121 = (-0.20122 + -0.20120)/2.0
 sum -  nocc_ = -0.00000299
 On Iteration in Bisection 17
 a: -0.00000  b:-0.00001

 -0.20121 = (-0.20121 + -0.20120)/2.0
 sum -  nocc_ = 0.00000077
 On Iteration in Bisection 18
 a: 0.00000  b:-0.00000

 -0.20121 = (-0.20121 + -0.20121)/2.0
 sum -  nocc_ = -0.00000111
 On Iteration in Bisection 19
 a: -0.00000  b:-0.00000

 -0.20121 = (-0.20121 + -0.20121)/2.0
 sum -  nocc_ = -0.00000017
 On Iteration in Bisection 20
 a: -0.00000  b:-0.00000

 -0.20121 = (-0.20121 + -0.20121)/2.0
 sum -  nocc_ = 0.00000030
 On Iteration in Bisection 21
 a: 0.00000  b:-0.00000

 -0.20121 = (-0.20121 + -0.20121)/2.0
 sum -  nocc_ = 0.00000007
 On Iteration in Bisection 22
 a: 0.00000  b:-0.00000

 -0.20121 = (-0.20121 + -0.20121)/2.0
 sum -  nocc_ = -0.00000005
 On Iteration in Bisection 23
 a: -0.00000  b:-0.00000

 -0.20121 = (-0.20121 + -0.20121)/2.0
 sum -  nocc_ = 0.00000001
 ef = -0.20121 sum = 1.00000 

 Iter: 3  T:    20000.000  val:-0.201209  sumni 0.00000
 ne = 1.0000

 iter:4  failiter:4  energy:     -1.330677389083  total:     -0.977892583356  error:     -0.011237261739
 In Bisection function HOMO = -0.434  LUMO =  2.129

 0.84770 = (-0.43389 + 2.12930)/2.0
 sum -  nocc_ = 2.90421715
 On Iteration in Bisection 0
 a: 2.90422  b:-0.49937

 0.20691 = (-0.43389 + 0.84770)/2.0
 sum -  nocc_ = 0.94179631
 On Iteration in Bisection 1
 a: 0.94180  b:-0.49937

 -0.11349 = (-0.43389 + 0.20691)/2.0
 sum -  nocc_ = 0.08444950
 On Iteration in Bisection 2
 a: 0.08445  b:-0.49937

 -0.27369 = (-0.43389 + -0.11349)/2.0
 sum -  nocc_ = -0.06592362
 On Iteration in Bisection 3
 a: -0.06592  b:-0.49937

 -0.19359 = (-0.27369 + -0.11349)/2.0
 sum -  nocc_ = 0.00540291
 On Iteration in Bisection 4
 a: 0.00540  b:-0.06592

 -0.23364 = (-0.27369 + -0.19359)/2.0
 sum -  nocc_ = -0.02587426
 On Iteration in Bisection 5
 a: -0.02587  b:-0.06592

 -0.21361 = (-0.23364 + -0.19359)/2.0
 sum -  nocc_ = -0.00981549
 On Iteration in Bisection 6
 a: -0.00982  b:-0.02587

 -0.20360 = (-0.21361 + -0.19359)/2.0
 sum -  nocc_ = -0.00218292
 On Iteration in Bisection 7
 a: -0.00218  b:-0.00982

 -0.19860 = (-0.20360 + -0.19359)/2.0
 sum -  nocc_ = 0.00160570
 On Iteration in Bisection 8
 a: 0.00161  b:-0.00218

 -0.20110 = (-0.20360 + -0.19860)/2.0
 sum -  nocc_ = -0.00028842
 On Iteration in Bisection 9
 a: -0.00029  b:-0.00218

 -0.19985 = (-0.20110 + -0.19860)/2.0
 sum -  nocc_ = 0.00065853
 On Iteration in Bisection 10
 a: 0.00066  b:-0.00029

 -0.20047 = (-0.20110 + -0.19985)/2.0
 sum -  nocc_ = 0.00018505
 On Iteration in Bisection 11
 a: 0.00019  b:-0.00029

 -0.20079 = (-0.20110 + -0.20047)/2.0
 sum -  nocc_ = -0.00005168
 On Iteration in Bisection 12
 a: -0.00005  b:-0.00029

 -0.20063 = (-0.20079 + -0.20047)/2.0
 sum -  nocc_ = 0.00006668
 On Iteration in Bisection 13
 a: 0.00007  b:-0.00005

 -0.20071 = (-0.20079 + -0.20063)/2.0
 sum -  nocc_ = 0.00000750
 On Iteration in Bisection 14
 a: 0.00001  b:-0.00005

 -0.20075 = (-0.20079 + -0.20071)/2.0
 sum -  nocc_ = -0.00002209
 On Iteration in Bisection 15
 a: -0.00002  b:-0.00005

 -0.20073 = (-0.20075 + -0.20071)/2.0
 sum -  nocc_ = -0.00000730
 On Iteration in Bisection 16
 a: -0.00001  b:-0.00002

 -0.20072 = (-0.20073 + -0.20071)/2.0
 sum -  nocc_ = 0.00000010
 On Iteration in Bisection 17
 a: 0.00000  b:-0.00001

 -0.20072 = (-0.20073 + -0.20072)/2.0
 sum -  nocc_ = -0.00000360
 On Iteration in Bisection 18
 a: -0.00000  b:-0.00001

 -0.20072 = (-0.20072 + -0.20072)/2.0
 sum -  nocc_ = -0.00000175
 On Iteration in Bisection 19
 a: -0.00000  b:-0.00000

 -0.20072 = (-0.20072 + -0.20072)/2.0
 sum -  nocc_ = -0.00000082
 On Iteration in Bisection 20
 a: -0.00000  b:-0.00000

 -0.20072 = (-0.20072 + -0.20072)/2.0
 sum -  nocc_ = -0.00000036
 On Iteration in Bisection 21
 a: -0.00000  b:-0.00000

 -0.20072 = (-0.20072 + -0.20072)/2.0
 sum -  nocc_ = -0.00000013
 On Iteration in Bisection 22
 a: -0.00000  b:-0.00000

 -0.20072 = (-0.20072 + -0.20072)/2.0
 sum -  nocc_ = -0.00000002
 On Iteration in Bisection 23
 a: -0.00000  b:-0.00000

 -0.20072 = (-0.20072 + -0.20072)/2.0
 sum -  nocc_ = 0.00000004
 On Iteration in Bisection 24
 a: 0.00000  b:-0.00000

 -0.20072 = (-0.20072 + -0.20072)/2.0
 sum -  nocc_ = 0.00000001
 On Iteration in Bisection 25
 a: 0.00000  b:-0.00000

 -0.20072 = (-0.20072 + -0.20072)/2.0
 sum -  nocc_ = -0.00000000
 ef = -0.20072 sum = 1.00000 

 Iter: 4  T:    20000.000  val:-0.200718  sumni 0.00000
 ne = 1.0000

 iter:5  failiter:5  energy:     -1.331696456119  total:     -0.978911650393  error:     -0.001019067037
 In Bisection function HOMO = -0.434  LUMO =  2.129

 0.84776 = (-0.43393 + 2.12945)/2.0
 sum -  nocc_ = 2.90417082
 On Iteration in Bisection 0
 a: 2.90417  b:-0.49937

 0.20691 = (-0.43393 + 0.84776)/2.0
 sum -  nocc_ = 0.94161422
 On Iteration in Bisection 1
 a: 0.94161  b:-0.49937

 -0.11351 = (-0.43393 + 0.20691)/2.0
 sum -  nocc_ = 0.08415597
 On Iteration in Bisection 2
 a: 0.08416  b:-0.49937

 -0.27372 = (-0.43393 + -0.11351)/2.0
 sum -  nocc_ = -0.06593971
 On Iteration in Bisection 3
 a: -0.06594  b:-0.49937

 -0.19362 = (-0.27372 + -0.11351)/2.0
 sum -  nocc_ = 0.00531108
 On Iteration in Bisection 4
 a: 0.00531  b:-0.06594

 -0.23367 = (-0.27372 + -0.19362)/2.0
 sum -  nocc_ = -0.02591888
 On Iteration in Bisection 5
 a: -0.02592  b:-0.06594

 -0.21364 = (-0.23367 + -0.19362)/2.0
 sum -  nocc_ = -0.00988075
 On Iteration in Bisection 6
 a: -0.00988  b:-0.02592

 -0.20363 = (-0.21364 + -0.19362)/2.0
 sum -  nocc_ = -0.00226062
 On Iteration in Bisection 7
 a: -0.00226  b:-0.00988

 -0.19862 = (-0.20363 + -0.19362)/2.0
 sum -  nocc_ = 0.00152116
 On Iteration in Bisection 8
 a: 0.00152  b:-0.00226

 -0.20113 = (-0.20363 + -0.19862)/2.0
 sum -  nocc_ = -0.00036949
 On Iteration in Bisection 9
 a: -0.00037  b:-0.00226

 -0.19988 = (-0.20113 + -0.19862)/2.0
 sum -  nocc_ = 0.00057574
 On Iteration in Bisection 10
 a: 0.00058  b:-0.00037

 -0.20050 = (-0.20113 + -0.19988)/2.0
 sum -  nocc_ = 0.00010312
 On Iteration in Bisection 11
 a: 0.00010  b:-0.00037

 -0.20081 = (-0.20113 + -0.20050)/2.0
 sum -  nocc_ = -0.00013318
 On Iteration in Bisection 12
 a: -0.00013  b:-0.00037

 -0.20066 = (-0.20081 + -0.20050)/2.0
 sum -  nocc_ = -0.00001503
 On Iteration in Bisection 13
 a: -0.00002  b:-0.00013

 -0.20058 = (-0.20066 + -0.20050)/2.0
 sum -  nocc_ = 0.00004405
 On Iteration in Bisection 14
 a: 0.00004  b:-0.00002

 -0.20062 = (-0.20066 + -0.20058)/2.0
 sum -  nocc_ = 0.00001451
 On Iteration in Bisection 15
 a: 0.00001  b:-0.00002

 -0.20064 = (-0.20066 + -0.20062)/2.0
 sum -  nocc_ = -0.00000026
 On Iteration in Bisection 16
 a: -0.00000  b:-0.00002

 -0.20063 = (-0.20064 + -0.20062)/2.0
 sum -  nocc_ = 0.00000712
 On Iteration in Bisection 17
 a: 0.00001  b:-0.00000

 -0.20063 = (-0.20064 + -0.20063)/2.0
 sum -  nocc_ = 0.00000343
 On Iteration in Bisection 18
 a: 0.00000  b:-0.00000

 -0.20064 = (-0.20064 + -0.20063)/2.0
 sum -  nocc_ = 0.00000159
 On Iteration in Bisection 19
 a: 0.00000  b:-0.00000

 -0.20064 = (-0.20064 + -0.20064)/2.0
 sum -  nocc_ = 0.00000066
 On Iteration in Bisection 20
 a: 0.00000  b:-0.00000

 -0.20064 = (-0.20064 + -0.20064)/2.0
 sum -  nocc_ = 0.00000020
 On Iteration in Bisection 21
 a: 0.00000  b:-0.00000

 -0.20064 = (-0.20064 + -0.20064)/2.0
 sum -  nocc_ = -0.00000003
 On Iteration in Bisection 22
 a: -0.00000  b:-0.00000

 -0.20064 = (-0.20064 + -0.20064)/2.0
 sum -  nocc_ = 0.00000009
 On Iteration in Bisection 23
 a: 0.00000  b:-0.00000

 -0.20064 = (-0.20064 + -0.20064)/2.0
 sum -  nocc_ = 0.00000003
 On Iteration in Bisection 24
 a: 0.00000  b:-0.00000

 -0.20064 = (-0.20064 + -0.20064)/2.0
 sum -  nocc_ = -0.00000000
 ef = -0.20064 sum = 1.00000 

 Iter: 5  T:    20000.000  val:-0.200638  sumni 0.00000
 ne = 1.0000

 iter:6  failiter:6  energy:     -1.331780904453  total:     -0.978996098726  error:     -0.000084448333
 In Bisection function HOMO = -0.434  LUMO =  2.129

 0.84777 = (-0.43394 + 2.12947)/2.0
 sum -  nocc_ = 2.90416851
 On Iteration in Bisection 0
 a: 2.90417  b:-0.49937

 0.20692 = (-0.43394 + 0.84777)/2.0
 sum -  nocc_ = 0.94159506
 On Iteration in Bisection 1
 a: 0.94160  b:-0.49937

 -0.11351 = (-0.43394 + 0.20692)/2.0
 sum -  nocc_ = 0.08412463
 On Iteration in Bisection 2
 a: 0.08412  b:-0.49937

 -0.27372 = (-0.43394 + -0.11351)/2.0
 sum -  nocc_ = -0.06594125
 On Iteration in Bisection 3
 a: -0.06594  b:-0.49937

 -0.19362 = (-0.27372 + -0.11351)/2.0
 sum -  nocc_ = 0.00530132
 On Iteration in Bisection 4
 a: 0.00530  b:-0.06594

 -0.23367 = (-0.27372 + -0.19362)/2.0
 sum -  nocc_ = -0.02592354
 On Iteration in Bisection 5
 a: -0.02592  b:-0.06594

 -0.21364 = (-0.23367 + -0.19362)/2.0
 sum -  nocc_ = -0.00988764
 On Iteration in Bisection 6
 a: -0.00989  b:-0.02592

 -0.20363 = (-0.21364 + -0.19362)/2.0
 sum -  nocc_ = -0.00226886
 On Iteration in Bisection 7
 a: -0.00227  b:-0.00989

 -0.19862 = (-0.20363 + -0.19362)/2.0
 sum -  nocc_ = 0.00151218
 On Iteration in Bisection 8
 a: 0.00151  b:-0.00227

 -0.20113 = (-0.20363 + -0.19862)/2.0
 sum -  nocc_ = -0.00037808
 On Iteration in Bisection 9
 a: -0.00038  b:-0.00227

 -0.19987 = (-0.20113 + -0.19862)/2.0
 sum -  nocc_ = 0.00056695
 On Iteration in Bisection 10
 a: 0.00057  b:-0.00038

 -0.20050 = (-0.20113 + -0.19987)/2.0
 sum -  nocc_ = 0.00009443
 On Iteration in Bisection 11
 a: 0.00009  b:-0.00038

 -0.20081 = (-0.20113 + -0.20050)/2.0
 sum -  nocc_ = -0.00014182
 On Iteration in Bisection 12
 a: -0.00014  b:-0.00038

 -0.20066 = (-0.20081 + -0.20050)/2.0
 sum -  nocc_ = -0.00002370
 On Iteration in Bisection 13
 a: -0.00002  b:-0.00014

 -0.20058 = (-0.20066 + -0.20050)/2.0
 sum -  nocc_ = 0.00003537
 On Iteration in Bisection 14
 a: 0.00004  b:-0.00002

 -0.20062 = (-0.20066 + -0.20058)/2.0
 sum -  nocc_ = 0.00000584
 On Iteration in Bisection 15
 a: 0.00001  b:-0.00002

 -0.20064 = (-0.20066 + -0.20062)/2.0
 sum -  nocc_ = -0.00000893
 On Iteration in Bisection 16
 a: -0.00001  b:-0.00002

 -0.20063 = (-0.20064 + -0.20062)/2.0
 sum -  nocc_ = -0.00000155
 On Iteration in Bisection 17
 a: -0.00000  b:-0.00001

 -0.20062 = (-0.20063 + -0.20062)/2.0
 sum -  nocc_ = 0.00000214
 On Iteration in Bisection 18
 a: 0.00000  b:-0.00000

 -0.20063 = (-0.20063 + -0.20062)/2.0
 sum -  nocc_ = 0.00000030
 On Iteration in Bisection 19
 a: 0.00000  b:-0.00000

 -0.20063 = (-0.20063 + -0.20063)/2.0
 sum -  nocc_ = -0.00000062
 On Iteration in Bisection 20
 a: -0.00000  b:-0.00000

 -0.20063 = (-0.20063 + -0.20063)/2.0
 sum -  nocc_ = -0.00000016
 On Iteration in Bisection 21
 a: -0.00000  b:-0.00000

 -0.20063 = (-0.20063 + -0.20063)/2.0
 sum -  nocc_ = 0.00000007
 On Iteration in Bisection 22
 a: 0.00000  b:-0.00000

 -0.20063 = (-0.20063 + -0.20063)/2.0
 sum -  nocc_ = -0.00000005
 On Iteration in Bisection 23
 a: -0.00000  b:-0.00000

 -0.20063 = (-0.20063 + -0.20063)/2.0
 sum -  nocc_ = 0.00000001
 ef = -0.20063 sum = 1.00000 

 Iter: 6  T:    20000.000  val:-0.200626  sumni 0.00000
 ne = 1.0000

 iter:7  failiter:7  energy:     -1.331786742750  total:     -0.979001937023  error:     -0.000005838297
 In Bisection function HOMO = -0.434  LUMO =  2.129

 0.84777 = (-0.43394 + 2.12948)/2.0
 sum -  nocc_ = 2.90416863
 On Iteration in Bisection 0
 a: 2.90417  b:-0.49937

 0.20692 = (-0.43394 + 0.84777)/2.0
 sum -  nocc_ = 0.94159299
 On Iteration in Bisection 1
 a: 0.94159  b:-0.49937

 -0.11351 = (-0.43394 + 0.20692)/2.0
 sum -  nocc_ = 0.08412117
 On Iteration in Bisection 2
 a: 0.08412  b:-0.49937

 -0.27372 = (-0.43394 + -0.11351)/2.0
 sum -  nocc_ = -0.06594139
 On Iteration in Bisection 3
 a: -0.06594  b:-0.49937

 -0.19362 = (-0.27372 + -0.11351)/2.0
 sum -  nocc_ = 0.00530025
 On Iteration in Bisection 4
 a: 0.00530  b:-0.06594

 -0.23367 = (-0.27372 + -0.19362)/2.0
 sum -  nocc_ = -0.02592404
 On Iteration in Bisection 5
 a: -0.02592  b:-0.06594

 -0.21364 = (-0.23367 + -0.19362)/2.0
 sum -  nocc_ = -0.00988839
 On Iteration in Bisection 6
 a: -0.00989  b:-0.02592

 -0.20363 = (-0.21364 + -0.19362)/2.0
 sum -  nocc_ = -0.00226976
 On Iteration in Bisection 7
 a: -0.00227  b:-0.00989

 -0.19862 = (-0.20363 + -0.19362)/2.0
 sum -  nocc_ = 0.00151120
 On Iteration in Bisection 8
 a: 0.00151  b:-0.00227

 -0.20113 = (-0.20363 + -0.19862)/2.0
 sum -  nocc_ = -0.00037902
 On Iteration in Bisection 9
 a: -0.00038  b:-0.00227

 -0.19987 = (-0.20113 + -0.19862)/2.0
 sum -  nocc_ = 0.00056599
 On Iteration in Bisection 10
 a: 0.00057  b:-0.00038

 -0.20050 = (-0.20113 + -0.19987)/2.0
 sum -  nocc_ = 0.00009348
 On Iteration in Bisection 11
 a: 0.00009  b:-0.00038

 -0.20081 = (-0.20113 + -0.20050)/2.0
 sum -  nocc_ = -0.00014277
 On Iteration in Bisection 12
 a: -0.00014  b:-0.00038

 -0.20066 = (-0.20081 + -0.20050)/2.0
 sum -  nocc_ = -0.00002464
 On Iteration in Bisection 13
 a: -0.00002  b:-0.00014

 -0.20058 = (-0.20066 + -0.20050)/2.0
 sum -  nocc_ = 0.00003442
 On Iteration in Bisection 14
 a: 0.00003  b:-0.00002

 -0.20062 = (-0.20066 + -0.20058)/2.0
 sum -  nocc_ = 0.00000489
 On Iteration in Bisection 15
 a: 0.00000  b:-0.00002

 -0.20064 = (-0.20066 + -0.20062)/2.0
 sum -  nocc_ = -0.00000988
 On Iteration in Bisection 16
 a: -0.00001  b:-0.00002

 -0.20063 = (-0.20064 + -0.20062)/2.0
 sum -  nocc_ = -0.00000250
 On Iteration in Bisection 17
 a: -0.00000  b:-0.00001

 -0.20062 = (-0.20063 + -0.20062)/2.0
 sum -  nocc_ = 0.00000119
 On Iteration in Bisection 18
 a: 0.00000  b:-0.00000

 -0.20062 = (-0.20063 + -0.20062)/2.0
 sum -  nocc_ = -0.00000065
 On Iteration in Bisection 19
 a: -0.00000  b:-0.00000

 -0.20062 = (-0.20062 + -0.20062)/2.0
 sum -  nocc_ = 0.00000027
 On Iteration in Bisection 20
 a: 0.00000  b:-0.00000

 -0.20062 = (-0.20062 + -0.20062)/2.0
 sum -  nocc_ = -0.00000019
 On Iteration in Bisection 21
 a: -0.00000  b:-0.00000

 -0.20062 = (-0.20062 + -0.20062)/2.0
 sum -  nocc_ = 0.00000004
 On Iteration in Bisection 22
 a: 0.00000  b:-0.00000

 -0.20062 = (-0.20062 + -0.20062)/2.0
 sum -  nocc_ = -0.00000007
 On Iteration in Bisection 23
 a: -0.00000  b:-0.00000

 -0.20062 = (-0.20062 + -0.20062)/2.0
 sum -  nocc_ = -0.00000002
 On Iteration in Bisection 24
 a: -0.00000  b:-0.00000

 -0.20062 = (-0.20062 + -0.20062)/2.0
 sum -  nocc_ = 0.00000001
 On Iteration in Bisection 25
 a: 0.00000  b:-0.00000

 -0.20062 = (-0.20062 + -0.20062)/2.0
 sum -  nocc_ = -0.00000000
 ef = -0.20062 sum = 1.00000 

 Iter: 7  T:    20000.000  val:-0.200624  sumni 0.00000
 ne = 1.0000

 iter:8  failiter:8  energy:     -1.331786919158  total:     -0.979002113431  error:     -0.000000176408
 In Bisection function HOMO = -0.434  LUMO =  2.129

 0.84777 = (-0.43394 + 2.12948)/2.0
 sum -  nocc_ = 2.90416869
 On Iteration in Bisection 0
 a: 2.90417  b:-0.49937

 0.20692 = (-0.43394 + 0.84777)/2.0
 sum -  nocc_ = 0.94159276
 On Iteration in Bisection 1
 a: 0.94159  b:-0.49937

 -0.11351 = (-0.43394 + 0.20692)/2.0
 sum -  nocc_ = 0.08412077
 On Iteration in Bisection 2
 a: 0.08412  b:-0.49937

 -0.27372 = (-0.43394 + -0.11351)/2.0
 sum -  nocc_ = -0.06594141
 On Iteration in Bisection 3
 a: -0.06594  b:-0.49937

 -0.19362 = (-0.27372 + -0.11351)/2.0
 sum -  nocc_ = 0.00530013
 On Iteration in Bisection 4
 a: 0.00530  b:-0.06594

 -0.23367 = (-0.27372 + -0.19362)/2.0
 sum -  nocc_ = -0.02592409
 On Iteration in Bisection 5
 a: -0.02592  b:-0.06594

 -0.21364 = (-0.23367 + -0.19362)/2.0
 sum -  nocc_ = -0.00988847
 On Iteration in Bisection 6
 a: -0.00989  b:-0.02592

 -0.20363 = (-0.21364 + -0.19362)/2.0
 sum -  nocc_ = -0.00226986
 On Iteration in Bisection 7
 a: -0.00227  b:-0.00989

 -0.19862 = (-0.20363 + -0.19362)/2.0
 sum -  nocc_ = 0.00151109
 On Iteration in Bisection 8
 a: 0.00151  b:-0.00227

 -0.20113 = (-0.20363 + -0.19862)/2.0
 sum -  nocc_ = -0.00037913
 On Iteration in Bisection 9
 a: -0.00038  b:-0.00227

 -0.19987 = (-0.20113 + -0.19862)/2.0
 sum -  nocc_ = 0.00056588
 On Iteration in Bisection 10
 a: 0.00057  b:-0.00038

 -0.20050 = (-0.20113 + -0.19987)/2.0
 sum -  nocc_ = 0.00009337
 On Iteration in Bisection 11
 a: 0.00009  b:-0.00038

 -0.20081 = (-0.20113 + -0.20050)/2.0
 sum -  nocc_ = -0.00014288
 On Iteration in Bisection 12
 a: -0.00014  b:-0.00038

 -0.20066 = (-0.20081 + -0.20050)/2.0
 sum -  nocc_ = -0.00002475
 On Iteration in Bisection 13
 a: -0.00002  b:-0.00014

 -0.20058 = (-0.20066 + -0.20050)/2.0
 sum -  nocc_ = 0.00003431
 On Iteration in Bisection 14
 a: 0.00003  b:-0.00002

 -0.20062 = (-0.20066 + -0.20058)/2.0
 sum -  nocc_ = 0.00000478
 On Iteration in Bisection 15
 a: 0.00000  b:-0.00002

 -0.20064 = (-0.20066 + -0.20062)/2.0
 sum -  nocc_ = -0.00000999
 On Iteration in Bisection 16
 a: -0.00001  b:-0.00002

 -0.20063 = (-0.20064 + -0.20062)/2.0
 sum -  nocc_ = -0.00000260
 On Iteration in Bisection 17
 a: -0.00000  b:-0.00001

 -0.20062 = (-0.20063 + -0.20062)/2.0
 sum -  nocc_ = 0.00000109
 On Iteration in Bisection 18
 a: 0.00000  b:-0.00000

 -0.20062 = (-0.20063 + -0.20062)/2.0
 sum -  nocc_ = -0.00000076
 On Iteration in Bisection 19
 a: -0.00000  b:-0.00000

 -0.20062 = (-0.20062 + -0.20062)/2.0
 sum -  nocc_ = 0.00000016
 On Iteration in Bisection 20
 a: 0.00000  b:-0.00000

 -0.20062 = (-0.20062 + -0.20062)/2.0
 sum -  nocc_ = -0.00000030
 On Iteration in Bisection 21
 a: -0.00000  b:-0.00000

 -0.20062 = (-0.20062 + -0.20062)/2.0
 sum -  nocc_ = -0.00000007
 On Iteration in Bisection 22
 a: -0.00000  b:-0.00000

 -0.20062 = (-0.20062 + -0.20062)/2.0
 sum -  nocc_ = 0.00000005
 On Iteration in Bisection 23
 a: 0.00000  b:-0.00000

 -0.20062 = (-0.20062 + -0.20062)/2.0
 sum -  nocc_ = -0.00000001
 ef = -0.20062 sum = 1.00000 

 Iter: 8  T:    20000.000  val:-0.200623  sumni 0.00000
 ne = 1.0000

 iter:9  failiter:9  energy:     -1.331786879616  total:     -0.979002073889  error:      0.000000039542
 In Bisection function HOMO = -0.434  LUMO =  2.129

 0.84777 = (-0.43394 + 2.12948)/2.0
 sum -  nocc_ = 2.90416871
 On Iteration in Bisection 0
 a: 2.90417  b:-0.49937

 0.20692 = (-0.43394 + 0.84777)/2.0
 sum -  nocc_ = 0.94159273
 On Iteration in Bisection 1
 a: 0.94159  b:-0.49937

 -0.11351 = (-0.43394 + 0.20692)/2.0
 sum -  nocc_ = 0.08412072
 On Iteration in Bisection 2
 a: 0.08412  b:-0.49937

 -0.27372 = (-0.43394 + -0.11351)/2.0
 sum -  nocc_ = -0.06594141
 On Iteration in Bisection 3
 a: -0.06594  b:-0.49937

 -0.19362 = (-0.27372 + -0.11351)/2.0
 sum -  nocc_ = 0.00530011
 On Iteration in Bisection 4
 a: 0.00530  b:-0.06594

 -0.23367 = (-0.27372 + -0.19362)/2.0
 sum -  nocc_ = -0.02592410
 On Iteration in Bisection 5
 a: -0.02592  b:-0.06594

 -0.21364 = (-0.23367 + -0.19362)/2.0
 sum -  nocc_ = -0.00988848
 On Iteration in Bisection 6
 a: -0.00989  b:-0.02592

 -0.20363 = (-0.21364 + -0.19362)/2.0
 sum -  nocc_ = -0.00226987
 On Iteration in Bisection 7
 a: -0.00227  b:-0.00989

 -0.19862 = (-0.20363 + -0.19362)/2.0
 sum -  nocc_ = 0.00151107
 On Iteration in Bisection 8
 a: 0.00151  b:-0.00227

 -0.20113 = (-0.20363 + -0.19862)/2.0
 sum -  nocc_ = -0.00037914
 On Iteration in Bisection 9
 a: -0.00038  b:-0.00227

 -0.19987 = (-0.20113 + -0.19862)/2.0
 sum -  nocc_ = 0.00056587
 On Iteration in Bisection 10
 a: 0.00057  b:-0.00038

 -0.20050 = (-0.20113 + -0.19987)/2.0
 sum -  nocc_ = 0.00009336
 On Iteration in Bisection 11
 a: 0.00009  b:-0.00038

 -0.20081 = (-0.20113 + -0.20050)/2.0
 sum -  nocc_ = -0.00014289
 On Iteration in Bisection 12
 a: -0.00014  b:-0.00038

 -0.20066 = (-0.20081 + -0.20050)/2.0
 sum -  nocc_ = -0.00002477
 On Iteration in Bisection 13
 a: -0.00002  b:-0.00014

 -0.20058 = (-0.20066 + -0.20050)/2.0
 sum -  nocc_ = 0.00003430
 On Iteration in Bisection 14
 a: 0.00003  b:-0.00002

 -0.20062 = (-0.20066 + -0.20058)/2.0
 sum -  nocc_ = 0.00000476
 On Iteration in Bisection 15
 a: 0.00000  b:-0.00002

 -0.20064 = (-0.20066 + -0.20062)/2.0
 sum -  nocc_ = -0.00001000
 On Iteration in Bisection 16
 a: -0.00001  b:-0.00002

 -0.20063 = (-0.20064 + -0.20062)/2.0
 sum -  nocc_ = -0.00000262
 On Iteration in Bisection 17
 a: -0.00000  b:-0.00001

 -0.20062 = (-0.20063 + -0.20062)/2.0
 sum -  nocc_ = 0.00000107
 On Iteration in Bisection 18
 a: 0.00000  b:-0.00000

 -0.20062 = (-0.20063 + -0.20062)/2.0
 sum -  nocc_ = -0.00000077
 On Iteration in Bisection 19
 a: -0.00000  b:-0.00000

 -0.20062 = (-0.20062 + -0.20062)/2.0
 sum -  nocc_ = 0.00000015
 On Iteration in Bisection 20
 a: 0.00000  b:-0.00000

 -0.20062 = (-0.20062 + -0.20062)/2.0
 sum -  nocc_ = -0.00000031
 On Iteration in Bisection 21
 a: -0.00000  b:-0.00000

 -0.20062 = (-0.20062 + -0.20062)/2.0
 sum -  nocc_ = -0.00000008
 On Iteration in Bisection 22
 a: -0.00000  b:-0.00000

 -0.20062 = (-0.20062 + -0.20062)/2.0
 sum -  nocc_ = 0.00000004
 On Iteration in Bisection 23
 a: 0.00000  b:-0.00000

 -0.20062 = (-0.20062 + -0.20062)/2.0
 sum -  nocc_ = -0.00000002
 On Iteration in Bisection 24
 a: -0.00000  b:-0.00000

 -0.20062 = (-0.20062 + -0.20062)/2.0
 sum -  nocc_ = 0.00000001
 ef = -0.20062 sum = 1.00000 

 Iter: 9  T:    20000.000  val:-0.200623  sumni 0.00000
 ne = 1.0000

 iter:10  failiter:10  energy:     -1.331786886339  total:     -0.979002080613  error:     -0.000000006723
 In Bisection function HOMO = -0.434  LUMO =  2.129

 0.84777 = (-0.43394 + 2.12948)/2.0
 sum -  nocc_ = 2.90416871
 On Iteration in Bisection 0
 a: 2.90417  b:-0.49937

 0.20692 = (-0.43394 + 0.84777)/2.0
 sum -  nocc_ = 0.94159273
 On Iteration in Bisection 1
 a: 0.94159  b:-0.49937

 -0.11351 = (-0.43394 + 0.20692)/2.0
 sum -  nocc_ = 0.08412072
 On Iteration in Bisection 2
 a: 0.08412  b:-0.49937

 -0.27372 = (-0.43394 + -0.11351)/2.0
 sum -  nocc_ = -0.06594141
 On Iteration in Bisection 3
 a: -0.06594  b:-0.49937

 -0.19362 = (-0.27372 + -0.11351)/2.0
 sum -  nocc_ = 0.00530011
 On Iteration in Bisection 4
 a: 0.00530  b:-0.06594

 -0.23367 = (-0.27372 + -0.19362)/2.0
 sum -  nocc_ = -0.02592410
 On Iteration in Bisection 5
 a: -0.02592  b:-0.06594

 -0.21364 = (-0.23367 + -0.19362)/2.0
 sum -  nocc_ = -0.00988848
 On Iteration in Bisection 6
 a: -0.00989  b:-0.02592

 -0.20363 = (-0.21364 + -0.19362)/2.0
 sum -  nocc_ = -0.00226987
 On Iteration in Bisection 7
 a: -0.00227  b:-0.00989

 -0.19862 = (-0.20363 + -0.19362)/2.0
 sum -  nocc_ = 0.00151107
 On Iteration in Bisection 8
 a: 0.00151  b:-0.00227

 -0.20113 = (-0.20363 + -0.19862)/2.0
 sum -  nocc_ = -0.00037915
 On Iteration in Bisection 9
 a: -0.00038  b:-0.00227

 -0.19987 = (-0.20113 + -0.19862)/2.0
 sum -  nocc_ = 0.00056587
 On Iteration in Bisection 10
 a: 0.00057  b:-0.00038

 -0.20050 = (-0.20113 + -0.19987)/2.0
 sum -  nocc_ = 0.00009336
 On Iteration in Bisection 11
 a: 0.00009  b:-0.00038

 -0.20081 = (-0.20113 + -0.20050)/2.0
 sum -  nocc_ = -0.00014289
 On Iteration in Bisection 12
 a: -0.00014  b:-0.00038

 -0.20066 = (-0.20081 + -0.20050)/2.0
 sum -  nocc_ = -0.00002477
 On Iteration in Bisection 13
 a: -0.00002  b:-0.00014

 -0.20058 = (-0.20066 + -0.20050)/2.0
 sum -  nocc_ = 0.00003430
 On Iteration in Bisection 14
 a: 0.00003  b:-0.00002

 -0.20062 = (-0.20066 + -0.20058)/2.0
 sum -  nocc_ = 0.00000476
 On Iteration in Bisection 15
 a: 0.00000  b:-0.00002

 -0.20064 = (-0.20066 + -0.20062)/2.0
 sum -  nocc_ = -0.00001000
 On Iteration in Bisection 16
 a: -0.00001  b:-0.00002

 -0.20063 = (-0.20064 + -0.20062)/2.0
 sum -  nocc_ = -0.00000262
 On Iteration in Bisection 17
 a: -0.00000  b:-0.00001

 -0.20062 = (-0.20063 + -0.20062)/2.0
 sum -  nocc_ = 0.00000107
 On Iteration in Bisection 18
 a: 0.00000  b:-0.00000

 -0.20062 = (-0.20063 + -0.20062)/2.0
 sum -  nocc_ = -0.00000077
 On Iteration in Bisection 19
 a: -0.00000  b:-0.00000

 -0.20062 = (-0.20062 + -0.20062)/2.0
 sum -  nocc_ = 0.00000015
 On Iteration in Bisection 20
 a: 0.00000  b:-0.00000

 -0.20062 = (-0.20062 + -0.20062)/2.0
 sum -  nocc_ = -0.00000031
 On Iteration in Bisection 21
 a: -0.00000  b:-0.00000

 -0.20062 = (-0.20062 + -0.20062)/2.0
 sum -  nocc_ = -0.00000008
 On Iteration in Bisection 22
 a: -0.00000  b:-0.00000

 -0.20062 = (-0.20062 + -0.20062)/2.0
 sum -  nocc_ = 0.00000003
 On Iteration in Bisection 23
 a: 0.00000  b:-0.00000

 -0.20062 = (-0.20062 + -0.20062)/2.0
 sum -  nocc_ = -0.00000002
 On Iteration in Bisection 24
 a: -0.00000  b:-0.00000

 -0.20062 = (-0.20062 + -0.20062)/2.0
 sum -  nocc_ = 0.00000001
 ef = -0.20062 sum = 1.00000 

 Iter: 10  T:    20000.000  val:-0.200623  sumni 0.00000
 ne = 1.0000

 iter:11  failiter:11  energy:     -1.331786872738  total:     -0.979002067011  error:      0.000000013601
 In Bisection function HOMO = -0.434  LUMO =  2.129

 0.84777 = (-0.43394 + 2.12948)/2.0
 sum -  nocc_ = 2.90416871
 On Iteration in Bisection 0
 a: 2.90417  b:-0.49937

 0.20692 = (-0.43394 + 0.84777)/2.0
 sum -  nocc_ = 0.94159273
 On Iteration in Bisection 1
 a: 0.94159  b:-0.49937

 -0.11351 = (-0.43394 + 0.20692)/2.0
 sum -  nocc_ = 0.08412072
 On Iteration in Bisection 2
 a: 0.08412  b:-0.49937

 -0.27372 = (-0.43394 + -0.11351)/2.0
 sum -  nocc_ = -0.06594141
 On Iteration in Bisection 3
 a: -0.06594  b:-0.49937

 -0.19362 = (-0.27372 + -0.11351)/2.0
 sum -  nocc_ = 0.00530011
 On Iteration in Bisection 4
 a: 0.00530  b:-0.06594

 -0.23367 = (-0.27372 + -0.19362)/2.0
 sum -  nocc_ = -0.02592410
 On Iteration in Bisection 5
 a: -0.02592  b:-0.06594

 -0.21364 = (-0.23367 + -0.19362)/2.0
 sum -  nocc_ = -0.00988848
 On Iteration in Bisection 6
 a: -0.00989  b:-0.02592

 -0.20363 = (-0.21364 + -0.19362)/2.0
 sum -  nocc_ = -0.00226987
 On Iteration in Bisection 7
 a: -0.00227  b:-0.00989

 -0.19862 = (-0.20363 + -0.19362)/2.0
 sum -  nocc_ = 0.00151107
 On Iteration in Bisection 8
 a: 0.00151  b:-0.00227

 -0.20113 = (-0.20363 + -0.19862)/2.0
 sum -  nocc_ = -0.00037915
 On Iteration in Bisection 9
 a: -0.00038  b:-0.00227

 -0.19987 = (-0.20113 + -0.19862)/2.0
 sum -  nocc_ = 0.00056587
 On Iteration in Bisection 10
 a: 0.00057  b:-0.00038

 -0.20050 = (-0.20113 + -0.19987)/2.0
 sum -  nocc_ = 0.00009336
 On Iteration in Bisection 11
 a: 0.00009  b:-0.00038

 -0.20081 = (-0.20113 + -0.20050)/2.0
 sum -  nocc_ = -0.00014289
 On Iteration in Bisection 12
 a: -0.00014  b:-0.00038

 -0.20066 = (-0.20081 + -0.20050)/2.0
 sum -  nocc_ = -0.00002477
 On Iteration in Bisection 13
 a: -0.00002  b:-0.00014

 -0.20058 = (-0.20066 + -0.20050)/2.0
 sum -  nocc_ = 0.00003430
 On Iteration in Bisection 14
 a: 0.00003  b:-0.00002

 -0.20062 = (-0.20066 + -0.20058)/2.0
 sum -  nocc_ = 0.00000476
 On Iteration in Bisection 15
 a: 0.00000  b:-0.00002

 -0.20064 = (-0.20066 + -0.20062)/2.0
 sum -  nocc_ = -0.00001000
 On Iteration in Bisection 16
 a: -0.00001  b:-0.00002

 -0.20063 = (-0.20064 + -0.20062)/2.0
 sum -  nocc_ = -0.00000262
 On Iteration in Bisection 17
 a: -0.00000  b:-0.00001

 -0.20062 = (-0.20063 + -0.20062)/2.0
 sum -  nocc_ = 0.00000107
 On Iteration in Bisection 18
 a: 0.00000  b:-0.00000

 -0.20062 = (-0.20063 + -0.20062)/2.0
 sum -  nocc_ = -0.00000077
 On Iteration in Bisection 19
 a: -0.00000  b:-0.00000

 -0.20062 = (-0.20062 + -0.20062)/2.0
 sum -  nocc_ = 0.00000015
 On Iteration in Bisection 20
 a: 0.00000  b:-0.00000

 -0.20062 = (-0.20062 + -0.20062)/2.0
 sum -  nocc_ = -0.00000031
 On Iteration in Bisection 21
 a: -0.00000  b:-0.00000

 -0.20062 = (-0.20062 + -0.20062)/2.0
 sum -  nocc_ = -0.00000008
 On Iteration in Bisection 22
 a: -0.00000  b:-0.00000

 -0.20062 = (-0.20062 + -0.20062)/2.0
 sum -  nocc_ = 0.00000003
 On Iteration in Bisection 23
 a: 0.00000  b:-0.00000

 -0.20062 = (-0.20062 + -0.20062)/2.0
 sum -  nocc_ = -0.00000002
 On Iteration in Bisection 24
 a: -0.00000  b:-0.00000

 -0.20062 = (-0.20062 + -0.20062)/2.0
 sum -  nocc_ = 0.00000001
 ef = -0.20062 sum = 1.00000 

 Iter: 11  T:    20000.000  val:-0.200623  sumni 0.00000
 ne = 1.0000

 iter:12  failiter:12  energy:     -1.331786872866  total:     -0.979002067139  error:     -0.000000000128
 In Bisection function HOMO = -0.434  LUMO =  2.129

 0.84777 = (-0.43394 + 2.12948)/2.0
 sum -  nocc_ = 2.90416871
 On Iteration in Bisection 0
 a: 2.90417  b:-0.49937

 0.20692 = (-0.43394 + 0.84777)/2.0
 sum -  nocc_ = 0.94159273
 On Iteration in Bisection 1
 a: 0.94159  b:-0.49937

 -0.11351 = (-0.43394 + 0.20692)/2.0
 sum -  nocc_ = 0.08412072
 On Iteration in Bisection 2
 a: 0.08412  b:-0.49937

 -0.27372 = (-0.43394 + -0.11351)/2.0
 sum -  nocc_ = -0.06594141
 On Iteration in Bisection 3
 a: -0.06594  b:-0.49937

 -0.19362 = (-0.27372 + -0.11351)/2.0
 sum -  nocc_ = 0.00530011
 On Iteration in Bisection 4
 a: 0.00530  b:-0.06594

 -0.23367 = (-0.27372 + -0.19362)/2.0
 sum -  nocc_ = -0.02592410
 On Iteration in Bisection 5
 a: -0.02592  b:-0.06594

 -0.21364 = (-0.23367 + -0.19362)/2.0
 sum -  nocc_ = -0.00988848
 On Iteration in Bisection 6
 a: -0.00989  b:-0.02592

 -0.20363 = (-0.21364 + -0.19362)/2.0
 sum -  nocc_ = -0.00226987
 On Iteration in Bisection 7
 a: -0.00227  b:-0.00989

 -0.19862 = (-0.20363 + -0.19362)/2.0
 sum -  nocc_ = 0.00151107
 On Iteration in Bisection 8
 a: 0.00151  b:-0.00227

 -0.20113 = (-0.20363 + -0.19862)/2.0
 sum -  nocc_ = -0.00037915
 On Iteration in Bisection 9
 a: -0.00038  b:-0.00227

 -0.19987 = (-0.20113 + -0.19862)/2.0
 sum -  nocc_ = 0.00056587
 On Iteration in Bisection 10
 a: 0.00057  b:-0.00038

 -0.20050 = (-0.20113 + -0.19987)/2.0
 sum -  nocc_ = 0.00009336
 On Iteration in Bisection 11
 a: 0.00009  b:-0.00038

 -0.20081 = (-0.20113 + -0.20050)/2.0
 sum -  nocc_ = -0.00014289
 On Iteration in Bisection 12
 a: -0.00014  b:-0.00038

 -0.20066 = (-0.20081 + -0.20050)/2.0
 sum -  nocc_ = -0.00002477
 On Iteration in Bisection 13
 a: -0.00002  b:-0.00014

 -0.20058 = (-0.20066 + -0.20050)/2.0
 sum -  nocc_ = 0.00003429
 On Iteration in Bisection 14
 a: 0.00003  b:-0.00002

 -0.20062 = (-0.20066 + -0.20058)/2.0
 sum -  nocc_ = 0.00000476
 On Iteration in Bisection 15
 a: 0.00000  b:-0.00002

 -0.20064 = (-0.20066 + -0.20062)/2.0
 sum -  nocc_ = -0.00001000
 On Iteration in Bisection 16
 a: -0.00001  b:-0.00002

 -0.20063 = (-0.20064 + -0.20062)/2.0
 sum -  nocc_ = -0.00000262
 On Iteration in Bisection 17
 a: -0.00000  b:-0.00001

 -0.20062 = (-0.20063 + -0.20062)/2.0
 sum -  nocc_ = 0.00000107
 On Iteration in Bisection 18
 a: 0.00000  b:-0.00000

 -0.20062 = (-0.20063 + -0.20062)/2.0
 sum -  nocc_ = -0.00000077
 On Iteration in Bisection 19
 a: -0.00000  b:-0.00000

 -0.20062 = (-0.20062 + -0.20062)/2.0
 sum -  nocc_ = 0.00000015
 On Iteration in Bisection 20
 a: 0.00000  b:-0.00000

 -0.20062 = (-0.20062 + -0.20062)/2.0
 sum -  nocc_ = -0.00000031
 On Iteration in Bisection 21
 a: -0.00000  b:-0.00000

 -0.20062 = (-0.20062 + -0.20062)/2.0
 sum -  nocc_ = -0.00000008
 On Iteration in Bisection 22
 a: -0.00000  b:-0.00000

 -0.20062 = (-0.20062 + -0.20062)/2.0
 sum -  nocc_ = 0.00000003
 On Iteration in Bisection 23
 a: 0.00000  b:-0.00000

 -0.20062 = (-0.20062 + -0.20062)/2.0
 sum -  nocc_ = -0.00000002
 On Iteration in Bisection 24
 a: -0.00000  b:-0.00000

 -0.20062 = (-0.20062 + -0.20062)/2.0
 sum -  nocc_ = 0.00000001
 ef = -0.20062 sum = 1.00000 

 Iter: 12  T:    20000.000  val:-0.200623  sumni 0.00000
 ne = 1.0000

 iter:13  failiter:13  energy:     -1.331786872903  total:     -0.979002067177  error:     -0.000000000037
 In Bisection function HOMO = -0.434  LUMO =  2.129

 0.84777 = (-0.43394 + 2.12948)/2.0
 sum -  nocc_ = 2.90416871
 On Iteration in Bisection 0
 a: 2.90417  b:-0.49937

 0.20692 = (-0.43394 + 0.84777)/2.0
 sum -  nocc_ = 0.94159273
 On Iteration in Bisection 1
 a: 0.94159  b:-0.49937

 -0.11351 = (-0.43394 + 0.20692)/2.0
 sum -  nocc_ = 0.08412072
 On Iteration in Bisection 2
 a: 0.08412  b:-0.49937

 -0.27372 = (-0.43394 + -0.11351)/2.0
 sum -  nocc_ = -0.06594141
 On Iteration in Bisection 3
 a: -0.06594  b:-0.49937

 -0.19362 = (-0.27372 + -0.11351)/2.0
 sum -  nocc_ = 0.00530011
 On Iteration in Bisection 4
 a: 0.00530  b:-0.06594

 -0.23367 = (-0.27372 + -0.19362)/2.0
 sum -  nocc_ = -0.02592410
 On Iteration in Bisection 5
 a: -0.02592  b:-0.06594

 -0.21364 = (-0.23367 + -0.19362)/2.0
 sum -  nocc_ = -0.00988848
 On Iteration in Bisection 6
 a: -0.00989  b:-0.02592

 -0.20363 = (-0.21364 + -0.19362)/2.0
 sum -  nocc_ = -0.00226987
 On Iteration in Bisection 7
 a: -0.00227  b:-0.00989

 -0.19862 = (-0.20363 + -0.19362)/2.0
 sum -  nocc_ = 0.00151107
 On Iteration in Bisection 8
 a: 0.00151  b:-0.00227

 -0.20113 = (-0.20363 + -0.19862)/2.0
 sum -  nocc_ = -0.00037915
 On Iteration in Bisection 9
 a: -0.00038  b:-0.00227

 -0.19987 = (-0.20113 + -0.19862)/2.0
 sum -  nocc_ = 0.00056587
 On Iteration in Bisection 10
 a: 0.00057  b:-0.00038

 -0.20050 = (-0.20113 + -0.19987)/2.0
 sum -  nocc_ = 0.00009336
 On Iteration in Bisection 11
 a: 0.00009  b:-0.00038

 -0.20081 = (-0.20113 + -0.20050)/2.0
 sum -  nocc_ = -0.00014289
 On Iteration in Bisection 12
 a: -0.00014  b:-0.00038

 -0.20066 = (-0.20081 + -0.20050)/2.0
 sum -  nocc_ = -0.00002477
 On Iteration in Bisection 13
 a: -0.00002  b:-0.00014

 -0.20058 = (-0.20066 + -0.20050)/2.0
 sum -  nocc_ = 0.00003429
 On Iteration in Bisection 14
 a: 0.00003  b:-0.00002

 -0.20062 = (-0.20066 + -0.20058)/2.0
 sum -  nocc_ = 0.00000476
 On Iteration in Bisection 15
 a: 0.00000  b:-0.00002

 -0.20064 = (-0.20066 + -0.20062)/2.0
 sum -  nocc_ = -0.00001000
 On Iteration in Bisection 16
 a: -0.00001  b:-0.00002

 -0.20063 = (-0.20064 + -0.20062)/2.0
 sum -  nocc_ = -0.00000262
 On Iteration in Bisection 17
 a: -0.00000  b:-0.00001

 -0.20062 = (-0.20063 + -0.20062)/2.0
 sum -  nocc_ = 0.00000107
 On Iteration in Bisection 18
 a: 0.00000  b:-0.00000

 -0.20062 = (-0.20063 + -0.20062)/2.0
 sum -  nocc_ = -0.00000077
 On Iteration in Bisection 19
 a: -0.00000  b:-0.00000

 -0.20062 = (-0.20062 + -0.20062)/2.0
 sum -  nocc_ = 0.00000015
 On Iteration in Bisection 20
 a: 0.00000  b:-0.00000

 -0.20062 = (-0.20062 + -0.20062)/2.0
 sum -  nocc_ = -0.00000031
 On Iteration in Bisection 21
 a: -0.00000  b:-0.00000

 -0.20062 = (-0.20062 + -0.20062)/2.0
 sum -  nocc_ = -0.00000008
 On Iteration in Bisection 22
 a: -0.00000  b:-0.00000

 -0.20062 = (-0.20062 + -0.20062)/2.0
 sum -  nocc_ = 0.00000003
 On Iteration in Bisection 23
 a: 0.00000  b:-0.00000

 -0.20062 = (-0.20062 + -0.20062)/2.0
 sum -  nocc_ = -0.00000002
 On Iteration in Bisection 24
 a: -0.00000  b:-0.00000

 -0.20062 = (-0.20062 + -0.20062)/2.0
 sum -  nocc_ = 0.00000001
 ef = -0.20062 sum = 1.00000 

 Iter: 13  T:    20000.000  val:-0.200623  sumni 0.00000
 ne = 1.0000

 iter:14  failiter:14  energy:     -1.331786872904  total:     -0.979002067177  error:     -0.000000000000
 FTHFEnergy =    -0.979002
 FD_dis[0] = 0.97549159 with -0.433936 eig value
 FD_dis[1] = 0.02450574 with 0.032696 eig value
 FD_dis[2] = 0.00000167 with 0.641908 eig value
 FD_dis[3] = 0.00000101 with 0.673699 eig value
 FD_dis[4] = 0.00000000 with 1.274002 eig value
 FD_dis[5] = 0.00000000 with 1.380455 eig value
 FD_dis[6] = 0.00000000 with 1.380455 eig value
 FD_dis[7] = 0.00000000 with 1.614096 eig value
 FD_dis[8] = 0.00000000 with 1.614096 eig value
 FD_dis[9] = 0.00000000 with 2.129479 eig value
*** PSI4 exiting successfully. Buy a developer a beer!
