    -----------------------------------------------------------------------
          PSI4: An Open-Source Ab Initio Electronic Structure Package
                              PSI 4.0 Driver

               Git: Rev {detached?} 

    J. M. Turney, A. C. Simmonett, R. M. Parrish, E. G. Hohenstein,
    F. A. Evangelista, J. T. Fermann, B. J. Mintz, L. A. Burns, J. J. Wilke,
    M. L. Abrams, N. J. Russ, M. L. Leininger, C. L. Janssen, E. T. Seidl,
    W. D. Allen, H. F. Schaefer, R. A. King, E. F. Valeev, C. D. Sherrill,
    and T. D. Crawford, WIREs Comput. Mol. Sci. 2, 556-565 (2012)
    (doi: 10.1002/wcms.93)

                         Additional Contributions by
    A. E. DePrince, M. Saitow, U. Bozkaya, A. Yu. Sokolov
    -----------------------------------------------------------------------

    Process ID:  15214
    PSI4DATADIR: /Users/kevinhannon/Programs/psi4private/lib
    Memory level set to 256.000 MB

  ==> Input File <==

--------------------------------------------------------------------------

# PYTHONPATH must include directory above plugin directory.
#     Define either externally or here, then import plugin.
sys.path.insert(0, './..')
import dfmp2

molecule {
F 0.00   0.000    1.200
F 0.00   0.000    0.000
symmetry c1
}

set {
  basis cc-pvdz
  df_basis_mp2 cc-pvdz-ri
  freeze_core false
  memory 1gb
}

set dfmp2 {
  print 1
}
energy('mp2')
energy('dfmp2')

dfmp2.exampleFN()

--------------------------------------------------------------------------

*** tstart() called on Kevins-MacBook-Pro.local
*** at Fri Dec 12 16:55:12 2014

/Users/kevinhannon/Programs/Quantum_Programs/GS/mp2/dfmp2/dfmp2.so loaded.

  No DF_BASIS_SCF auxiliary basis selected, defaulting to cc-pvdz-jkfit


*** tstart() called on Kevins-MacBook-Pro.local
*** at Fri Dec 12 16:55:12 2014

	There are an even number of electrons - assuming singlet.
	Specify the multiplicity with the MULTP option in the
	input if this is incorrect


         ---------------------------------------------------------
                                   SCF
            by Justin Turney, Rob Parrish, and Andy Simmonett
                              RHF Reference
                        1 Threads,    256 MiB Core
         ---------------------------------------------------------

  ==> Geometry <==

    Molecular point group: c1
    Full point group: D_inf_h

    Geometry (in Angstrom), charge = 0, multiplicity = 1:

       Center              X                  Y                   Z       
    ------------   -----------------  -----------------  -----------------
           F          0.000000000000     0.000000000000     0.600000000000
           F          0.000000000000     0.000000000000    -0.600000000000

  Running in c1 symmetry.


	Rotational constants (cm^-1):
	A = **********    B =    1.23239   C =    1.23239

	Rotational constants (MHz):
	A = **********    B = 36946.01470   C = 36946.01470
  Nuclear repulsion =   35.719461579825001

  Charge       = 0
  Multiplicity = 1
  Electrons    = 18
  Nalpha       = 9
  Nbeta        = 9

  ==> Algorithm <==

  SCF Algorithm Type is DF.
  DIIS enabled.
  MOM disabled.
  Fractional occupation disabled.
  Guess Type is CORE.
  Energy threshold   = 1.00e-08
  Density threshold  = 1.00e-08
  Integral threshold = 0.00e+00

  ==> Primary Basis <==

  Basis Set: CC-PVDZ
    Number of shells: 12
    Number of basis function: 28
    Number of Cartesian functions: 30
    Spherical Harmonics?: true
    Max angular momentum: 2

  ==> Pre-Iterations <==

   -------------------------------------------------------
    Irrep   Nso     Nmo     Nalpha   Nbeta   Ndocc  Nsocc
   -------------------------------------------------------
     A         28      28       0       0       0       0
   -------------------------------------------------------
    Total      28      28       9       9       9       0
   -------------------------------------------------------

 OEINTS: Wrapper to libmints.
   by Justin Turney

   Calculation information:
      Number of atoms:                   2
      Number of AO shells:              12
      Number of SO shells:              12
      Number of primitives:             44
      Number of atomic orbitals:        30
      Number of basis functions:        28

      Number of irreps:                  1
      Number of functions per irrep: [  28 ]

      Overlap, kinetic, potential, dipole, and quadrupole integrals
        stored in file 35.

  ==> Integral Setup <==

  ==> DFJK: Density-Fitted J/K Matrices <==

    J tasked:                  Yes
    K tasked:                  Yes
    wK tasked:                  No
    OpenMP threads:              1
    Integrals threads:           1
    Memory (MB):               183
    Algorithm:                Core
    Integral Cache:           NONE
    Schwarz Cutoff:          1E-12
    Fitting Condition:       1E-12

   => Auxiliary Basis Set <=

  Basis Set: cc-pvdz-jkfit
    Number of shells: 48
    Number of basis function: 140
    Number of Cartesian functions: 162
    Spherical Harmonics?: true
    Max angular momentum: 3

  Minimum eigenvalue in the overlap matrix is 3.3063305955E-02.
  Using Symmetric Orthogonalization.
  SCF Guess: Core (One-Electron) Hamiltonian.

  ==> Iterations <==

                           Total Energy        Delta E     RMS |[F,P]|

   @DF-RHF iter   1:  -188.26879287125257   -1.88269e+02   1.47962e-01 
   @DF-RHF iter   2:  -196.56399493481541   -8.29520e+00   9.82219e-02 DIIS
   @DF-RHF iter   3:  -198.64627881792174   -2.08228e+00   8.67406e-03 DIIS
   @DF-RHF iter   4:  -198.66142326425611   -1.51444e-02   1.33893e-03 DIIS
   @DF-RHF iter   5:  -198.66215219148336   -7.28927e-04   3.17752e-04 DIIS
   @DF-RHF iter   6:  -198.66219443958991   -4.22481e-05   3.19991e-05 DIIS
   @DF-RHF iter   7:  -198.66219486127997   -4.21690e-07   3.03394e-06 DIIS
   @DF-RHF iter   8:  -198.66219486438285   -3.10288e-09   2.53595e-07 DIIS
   @DF-RHF iter   9:  -198.66219486440127   -1.84173e-11   1.95044e-08 DIIS
   @DF-RHF iter  10:  -198.66219486440150   -2.27374e-13   1.47079e-09 DIIS

  ==> Post-Iterations <==

	Orbital Energies (a.u.)
	-----------------------

	Doubly Occupied:                                                      

	   1A    -26.404270     2A    -26.403833     3A     -1.920063  
	   4A     -1.430143     5A     -0.869148     6A     -0.869148  
	   7A     -0.831202     8A     -0.608873     9A     -0.608873  

	Virtual:                                                              

	  10A      0.322546    11A      1.308703    12A      1.343827  
	  13A      1.343827    14A      1.492632    15A      1.492632  
	  16A      1.521083    17A      1.783278    18A      2.423721  
	  19A      3.399111    20A      3.399111    21A      3.676269  
	  22A      3.796229    23A      3.796229    24A      3.985234  
	  25A      3.985234    26A      4.545446    27A      4.545446  
	  28A      5.472254  

	Final Occupation by Irrep:
	          A 
	DOCC [     9 ]

  Energy converged.

  @DF-RHF Final Energy:  -198.66219486440150

   => Energetics <=

    Nuclear Repulsion Energy =             35.7194615798250013
    One-Electron Energy =                -348.8722086234959079
    Two-Electron Energy =                 114.4905521792694287
    DFT Exchange-Correlation Energy =       0.0000000000000000
    Empirical Dispersion Energy =           0.0000000000000000
    Total Energy =                       -198.6621948644014708



Properties will be evaluated at   0.000000,   0.000000,   0.000000 Bohr
  ==> Properties <==


Properties computed using the SCF density matrix

  Nuclear Dipole Moment: (a.u.)
     X:     0.0000      Y:     0.0000      Z:     0.0000

  Electronic Dipole Moment: (a.u.)
     X:    -0.0000      Y:    -0.0000      Z:    -0.0000

  Dipole Moment: (a.u.)
     X:    -0.0000      Y:    -0.0000      Z:    -0.0000     Total:     0.0000

  Dipole Moment: (Debye)
     X:    -0.0000      Y:    -0.0000      Z:    -0.0000     Total:     0.0000


  Saving occupied orbitals to File 180.

*** tstop() called on Kevins-MacBook-Pro.local at Fri Dec 12 16:55:12 2014
Module time:
	user time   =       0.22 seconds =       0.00 minutes
	system time =       0.01 seconds =       0.00 minutes
	total time  =          0 seconds =       0.00 minutes
Total time:
	user time   =       0.26 seconds =       0.00 minutes
	system time =       0.02 seconds =       0.00 minutes
	total time  =          0 seconds =       0.00 minutes

  //>>>>>>>>>>>>>>>>>>>>>>>>>>>>>>>>>>>//
  //               DFMP2               //
  //<<<<<<<<<<<<<<<<<<<<<<<<<<<<<<<<<<<//


*** tstart() called on Kevins-MacBook-Pro.local
*** at Fri Dec 12 16:55:12 2014

	 --------------------------------------------------------
	                          DF-MP2                         
	      2nd-Order Density-Fitted Moller-Plesset Theory     
	              RMP2 Wavefunction,   1 Threads             
	                                                         
	        Rob Parrish, Justin Turney, Andy Simmonett,      
	           Ed Hohenstein, and C. David Sherrill          
	 --------------------------------------------------------

   => Auxiliary Basis Set <=

  Basis Set: cc-pvdz-ri
    Number of shells: 36
    Number of basis function: 112
    Number of Cartesian functions: 132
    Spherical Harmonics?: true
    Max angular momentum: 3

	 --------------------------------------------------------
	                 NBF =    28, NAUX =   112
	 --------------------------------------------------------
	   CLASS    FOCC     OCC    AOCC    AVIR     VIR    FVIR
	   PAIRS       0       9       9      19      19       0
	 --------------------------------------------------------

  ## (A|mn) Block (Symmetry 0) ##
  Irrep: 1 Size: 112 x 784

                 1                   2                   3                   4                   5

    1     0.69070309416679    -0.24940293943883     0.07861285796943    -0.00000000000000     0.00000000000000
    2     1.42635177542285    -0.46128305248748     0.19211546201782    -0.00000000000000     0.00000000000000
    3     2.17212160234753    -0.61772760671455     0.33710265895153    -0.00000000000000     0.00000000000000
    4     3.07814015128324    -0.76616389612790     0.53570562566921    -0.00000000000000     0.00000000000000
    5     3.81167627783449    -0.88616995570346     0.69814242448095    -0.00000000000000     0.00000000000000
    6     4.32450219258599    -0.97614084764714     0.80902783626401    -0.00000000000000     0.00000000000000
    7     5.19375992504422    -1.13905719500290     0.99168221488739    -0.00000000000000     0.00000000000000
    8    -0.00000000000000     0.00000000000000    -0.00000000000000     0.07816660047106     0.00000000000000
    9     0.00000000000000     0.00000000000000     0.00000000000000     0.00000000000000     0.07816660047106
   10     0.00000000000000     0.00000000000000     0.00000000000000     0.00000000000000     0.00000000000000
   11     0.00000000000000     0.00000000000000     0.00000000000000     0.15394632473368     0.00000000000000
   12     0.00000000000000     0.00000000000000     0.00000000000000     0.00000000000000     0.15394632473368
   13     0.00000000000000     0.00000000000000     0.00000000000000     0.00000000000000     0.00000000000000
   14     0.00000000000000     0.00000000000000    -0.00000000000000     0.19932413338742     0.00000000000000
   15     0.00000000000000     0.00000000000000     0.00000000000000     0.00000000000000     0.19932413338742
   16     0.00000000000000     0.00000000000000     0.00000000000000     0.00000000000000     0.00000000000000
   17     0.00000000000000     0.00000000000000     0.00000000000000     0.20308261140069     0.00000000000000
   18     0.00000000000000     0.00000000000000     0.00000000000000     0.00000000000000     0.20308261140069
   19     0.00000000000000     0.00000000000000     0.00000000000000     0.00000000000000     0.00000000000000
   20     0.00000000000000    -0.00000000000000     0.00000000000000     0.18520717625662     0.00000000000000
   21     0.00000000000000     0.00000000000000     0.00000000000000     0.00000000000000     0.18520717625662
   22     0.00000000000000     0.00000000000000     0.00000000000000     0.00000000000000     0.00000000000000
   23     0.00000000000000     0.00000000000000     0.00000000000000     0.00000000000000     0.00000000000000
   24     0.00000000000000     0.00000000000000     0.00000000000000     0.00000000000000     0.00000000000000
   25     0.00000000000000     0.00000000000000     0.00000000000000     0.00000000000000     0.00000000000000
   26     0.00000000000000     0.00000000000000     0.00000000000000     0.00000000000000     0.00000000000000
   27     0.00000000000000     0.00000000000000     0.00000000000000     0.00000000000000     0.00000000000000
   28     0.00000000000000     0.00000000000000     0.00000000000000    -0.00000000000000     0.00000000000000
   29     0.00000000000000     0.00000000000000     0.00000000000000     0.00000000000000    -0.00000000000000
   30     0.00000000000000     0.00000000000000     0.00000000000000     0.00000000000000     0.00000000000000
   31     0.00000000000000     0.00000000000000     0.00000000000000     0.00000000000000     0.00000000000000
   32     0.00000000000000     0.00000000000000     0.00000000000000     0.00000000000000     0.00000000000000
   33     0.00000000000000     0.00000000000000     0.00000000000000    -0.00000000000000     0.00000000000000
   34     0.00000000000000     0.00000000000000     0.00000000000000     0.00000000000000    -0.00000000000000
   35     0.00000000000000     0.00000000000000     0.00000000000000     0.00000000000000     0.00000000000000
   36     0.00000000000000     0.00000000000000     0.00000000000000     0.00000000000000     0.00000000000000
   37     0.00000000000000     0.00000000000000     0.00000000000000     0.00000000000000     0.00000000000000
   38     0.00000000000000     0.00000000000000     0.00000000000000    -0.00000000000000     0.00000000000000
   39     0.00000000000000     0.00000000000000     0.00000000000000     0.00000000000000    -0.00000000000000
   40     0.00000000000000     0.00000000000000     0.00000000000000     0.00000000000000     0.00000000000000
   41     0.00000000000000     0.00000000000000     0.00000000000000     0.00000000000000     0.00000000000000
   42     0.00000000000000     0.00000000000000     0.00000000000000     0.00000000000000     0.00000000000000
   43    -0.00000000000000     0.00000000000000     0.00000000000000     0.00000000000000     0.00000000000000
   44     0.00000000000000     0.00000000000000     0.00000000000000     0.00000000000000    -0.00000000000000
   45     0.00000000000000     0.00000000000000     0.00000000000000     0.00000000000000     0.00000000000000
   46     0.00000000000000     0.00000000000000     0.00000000000000     0.00000000000000     0.00000000000000
   47     0.00000000000000     0.00000000000000     0.00000000000000     0.00000000000000     0.00000000000000
   48     0.00000000000000     0.00000000000000     0.00000000000000     0.00000000000000     0.00000000000000
   49     0.00000000000000     0.00000000000000     0.00000000000000     0.00000000000000     0.00000000000000
   50    -0.00000000000000     0.00000000000000     0.00000000000000     0.00000000000000     0.00000000000000
   51     0.00000000000000     0.00000000000000     0.00000000000000     0.00000000000000    -0.00000000000000
   52     0.00000000000000     0.00000000000000     0.00000000000000     0.00000000000000     0.00000000000000
   53     0.00000000000000     0.00000000000000     0.00000000000000     0.00000000000000     0.00000000000000
   54     0.00000000000000     0.00000000000000     0.00000000000000     0.00000000000000     0.00000000000000
   55     0.00000000000000     0.00000000000000     0.00000000000000     0.00000000000000     0.00000000000000
   56     0.00000000000000     0.00000000000000     0.00000000000000     0.00000000000000     0.00000000000000
   57     0.04536845563086    -0.00962691640383     0.00886800274482    -0.00146831356549     0.00000000000000
   58     0.13056661739900    -0.02770546020652     0.02552134908313    -0.00422568150005     0.00000000000000
   59     0.28938809854072    -0.06140644615046     0.05656538829728    -0.00936577722514     0.00000000000000
   60     0.65510067254997    -0.13900927632326     0.12804621317831    -0.02120007399843     0.00000000000000
   61     1.15682836464511    -0.24551496800918     0.22606825567022    -0.03735945161525     0.00000000000000
   62     1.64540554971890    -0.34952546503917     0.32131574798595    -0.05230618695778     0.00000000000000
   63     2.73635917958729    -0.58331768940207     0.53304719948136    -0.07631203888849     0.00000000000000
   64     0.00702360747609    -0.00149036912658     0.00137281878224    -0.00045462269383     0.00000000000000
   65     0.00000000000000     0.00000000000000     0.00000000000000     0.00000000000000     0.00022731334194
   66     0.00000000000000     0.00000000000000     0.00000000000000     0.00000000000000     0.00000000000000
   67     0.03240860260726    -0.00687694191624     0.00633424052046    -0.00209767706106     0.00000000000000
   68     0.00000000000000     0.00000000000000     0.00000000000000     0.00000000000000     0.00104887540921
   69     0.00000000000000     0.00000000000000     0.00000000000000     0.00000000000000     0.00000000000000
   70     0.12617664249148    -0.02677571946153     0.02465465458101    -0.00816335347166     0.00000000000000
   71     0.00000000000000     0.00000000000000     0.00000000000000     0.00000000000000     0.00408339622123
   72     0.00000000000000     0.00000000000000     0.00000000000000     0.00000000000000     0.00000000000000
   73     0.34309766855501    -0.07292531154309     0.06692142916864    -0.02198584735616     0.00000000000000
   74     0.00000000000000     0.00000000000000     0.00000000000000     0.00000000000000     0.01109276756224
   75     0.00000000000000     0.00000000000000     0.00000000000000     0.00000000000000     0.00000000000000
   76     0.99182430291169    -0.21458693872802     0.19103735581558    -0.05054432569123     0.00000000000000
   77     0.00000000000000     0.00000000000000     0.00000000000000     0.00000000000000     0.03175548868136
   78     0.00000000000000     0.00000000000000     0.00000000000000     0.00000000000000     0.00000000000000
   79     0.00313687086077    -0.00066563725417     0.00061291675601    -0.00030453354617     0.00000000000000
   80     0.00000000000000     0.00000000000000     0.00000000000000     0.00000000000000     0.00017583948998
   81     0.00000000000000     0.00000000000000     0.00000000000000     0.00000000000000     0.00000000000000
   82     0.00000000000000     0.00000000000000     0.00000000000000     0.00000000000000     0.00000000000000
   83     0.00000000000000     0.00000000000000     0.00000000000000     0.00000000000000     0.00000000000000
   84     0.02587782372312    -0.00549204838782     0.00505273650235    -0.00251040100552     0.00000000000000
   85     0.00000000000000     0.00000000000000     0.00000000000000     0.00000000000000     0.00145042728516
   86     0.00000000000000     0.00000000000000     0.00000000000000     0.00000000000000     0.00000000000000
   87     0.00000000000000     0.00000000000000     0.00000000000000     0.00000000000000     0.00000000000000
   88     0.00000000000000     0.00000000000000     0.00000000000000     0.00000000000000     0.00000000000000
   89     0.12310757647677    -0.02620896014360     0.02394392527510    -0.01180197627755     0.00000000000000
   90     0.00000000000000     0.00000000000000     0.00000000000000     0.00000000000000     0.00688642326048
   91     0.00000000000000     0.00000000000000     0.00000000000000     0.00000000000000     0.00000000000000
   92     0.00000000000000     0.00000000000000     0.00000000000000     0.00000000000000     0.00000000000000
   93     0.00000000000000     0.00000000000000     0.00000000000000     0.00000000000000     0.00000000000000
   94     0.80519097131478    -0.18076005906768     0.15090344914552    -0.04311412212045     0.00000000000000
   95     0.00000000000000     0.00000000000000     0.00000000000000     0.00000000000000     0.04371761928183
   96     0.00000000000000     0.00000000000000     0.00000000000000     0.00000000000000     0.00000000000000
   97     0.00000000000000     0.00000000000000     0.00000000000000     0.00000000000000     0.00000000000000
   98     0.00000000000000     0.00000000000000     0.00000000000000     0.00000000000000     0.00000000000000
   99     0.01133456233840    -0.00240700524663     0.00220745141009    -0.00146318434880     0.00000000000000
  100     0.00000000000000     0.00000000000000     0.00000000000000     0.00000000000000     0.00089800618414
  101     0.00000000000000     0.00000000000000     0.00000000000000     0.00000000000000     0.00000000000000
  102     0.00000000000000     0.00000000000000     0.00000000000000     0.00000000000000     0.00000000000000
  103     0.00000000000000     0.00000000000000     0.00000000000000     0.00000000000000     0.00000000000000
  104     0.00000000000000     0.00000000000000     0.00000000000000     0.00000000000000     0.00000000000000
  105     0.00000000000000     0.00000000000000     0.00000000000000     0.00000000000000     0.00000000000000
  106     0.07758302906194    -0.01665705364197     0.01494889210740    -0.00970665022641     0.00000000000000
  107     0.00000000000000     0.00000000000000     0.00000000000000     0.00000000000000     0.00610592157600
  108     0.00000000000000     0.00000000000000     0.00000000000000     0.00000000000000     0.00000000000000
  109     0.00000000000000     0.00000000000000     0.00000000000000     0.00000000000000     0.00000000000000
  110     0.00000000000000     0.00000000000000     0.00000000000000     0.00000000000000     0.00000000000000
  111     0.00000000000000     0.00000000000000     0.00000000000000     0.00000000000000    -0.00000000000000
  112     0.00000000000000     0.00000000000000     0.00000000000000     0.00000000000000     0.00000000000000

                 6                   7                   8                   9                  10

    1     0.00000000000000     0.00000000000000     0.00000000000000     0.00000000000000     0.00000000000000
    2     0.00000000000000     0.00000000000000     0.00000000000000     0.00000000000000     0.00000000000000
    3     0.00000000000000    -0.00000000000000     0.00000000000000     0.00000000000000     0.00000000000000
    4     0.00000000000000    -0.00000000000000     0.00000000000000     0.00000000000000     0.00000000000000
    5     0.00000000000000    -0.00000000000000     0.00000000000000     0.00000000000000     0.00000000000000
    6     0.00000000000000    -0.00000000000000     0.00000000000000     0.00000000000000     0.00000000000000
    7     0.00000000000000     0.00000000000000     0.00000000000000     0.00000000000000     0.00000000000000
    8     0.00000000000000     0.00632675670329     0.00000000000000     0.00000000000000    -0.00000000000000
    9     0.00000000000000     0.00000000000000     0.00632675670329     0.00000000000000     0.00000000000000
   10     0.07816660047106     0.00000000000000     0.00000000000000     0.00632675670329     0.00000000000000
   11     0.00000000000000     0.01555059298770     0.00000000000000     0.00000000000000     0.00000000000000
   12     0.00000000000000     0.00000000000000     0.01555059298770     0.00000000000000     0.00000000000000
   13     0.15394632473368     0.00000000000000     0.00000000000000     0.01555059298770     0.00000000000000
   14     0.00000000000000     0.02477670479278     0.00000000000000     0.00000000000000    -0.00000000000000
   15     0.00000000000000     0.00000000000000     0.02477670479278     0.00000000000000     0.00000000000000
   16     0.19932413338742     0.00000000000000     0.00000000000000     0.02477670479278     0.00000000000000
   17     0.00000000000000     0.02882359322919     0.00000000000000     0.00000000000000    -0.00000000000000
   18     0.00000000000000     0.00000000000000     0.02882359322919     0.00000000000000     0.00000000000000
   19     0.20308261140069     0.00000000000000     0.00000000000000     0.02882359322919     0.00000000000000
   20     0.00000000000000     0.02944718062991     0.00000000000000     0.00000000000000     0.00000000000000
   21     0.00000000000000     0.00000000000000     0.02944718062991     0.00000000000000     0.00000000000000
   22     0.18520717625662     0.00000000000000     0.00000000000000     0.02944718062991     0.00000000000000
   23     0.00000000000000     0.00000000000000     0.00000000000000     0.00000000000000     0.01359838368136
   24     0.00000000000000     0.00000000000000     0.00000000000000     0.00000000000000     0.00000000000000
   25     0.00000000000000     0.00000000000000     0.00000000000000     0.00000000000000     0.00000000000000
   26     0.00000000000000     0.00000000000000     0.00000000000000     0.00000000000000     0.00000000000000
   27     0.00000000000000     0.00000000000000     0.00000000000000     0.00000000000000     0.00000000000000
   28     0.00000000000000    -0.00000000000000     0.00000000000000     0.00000000000000     0.02602280607241
   29     0.00000000000000     0.00000000000000    -0.00000000000000     0.00000000000000     0.00000000000000
   30    -0.00000000000000     0.00000000000000     0.00000000000000    -0.00000000000000     0.00000000000000
   31     0.00000000000000     0.00000000000000     0.00000000000000     0.00000000000000     0.00000000000000
   32     0.00000000000000     0.00000000000000     0.00000000000000     0.00000000000000     0.00000000000000
   33     0.00000000000000    -0.00000000000000     0.00000000000000     0.00000000000000     0.02724738797895
   34     0.00000000000000     0.00000000000000    -0.00000000000000     0.00000000000000     0.00000000000000
   35    -0.00000000000000     0.00000000000000     0.00000000000000    -0.00000000000000     0.00000000000000
   36     0.00000000000000     0.00000000000000     0.00000000000000     0.00000000000000     0.00000000000000
   37     0.00000000000000     0.00000000000000     0.00000000000000     0.00000000000000     0.00000000000000
   38     0.00000000000000     0.00000000000000     0.00000000000000     0.00000000000000     0.01855589681252
   39     0.00000000000000     0.00000000000000     0.00000000000000     0.00000000000000     0.00000000000000
   40    -0.00000000000000     0.00000000000000     0.00000000000000     0.00000000000000     0.00000000000000
   41     0.00000000000000     0.00000000000000     0.00000000000000     0.00000000000000     0.00000000000000
   42     0.00000000000000     0.00000000000000     0.00000000000000     0.00000000000000     0.00000000000000
   43     0.00000000000000     0.00000000000000     0.00000000000000     0.00000000000000    -0.00000000000000
   44     0.00000000000000     0.00000000000000     0.00000000000000     0.00000000000000     0.00000000000000
   45    -0.00000000000000     0.00000000000000     0.00000000000000    -0.00000000000000     0.00000000000000
   46     0.00000000000000     0.00000000000000     0.00000000000000     0.00000000000000     0.00000000000000
   47     0.00000000000000     0.00000000000000     0.00000000000000     0.00000000000000     0.00000000000000
   48     0.00000000000000     0.00000000000000     0.00000000000000     0.00000000000000     0.00000000000000
   49    -0.00000000000000     0.00000000000000     0.00000000000000    -0.00000000000000     0.00000000000000
   50     0.00000000000000     0.00000000000000     0.00000000000000     0.00000000000000    -0.00000000000000
   51     0.00000000000000     0.00000000000000    -0.00000000000000     0.00000000000000     0.00000000000000
   52    -0.00000000000000     0.00000000000000     0.00000000000000    -0.00000000000000     0.00000000000000
   53     0.00000000000000     0.00000000000000     0.00000000000000     0.00000000000000     0.00000000000000
   54     0.00000000000000     0.00000000000000     0.00000000000000     0.00000000000000     0.00000000000000
   55     0.00000000000000     0.00000000000000     0.00000000000000     0.00000000000000     0.00000000000000
   56    -0.00000000000000     0.00000000000000     0.00000000000000    -0.00000000000000     0.00000000000000
   57     0.00000000000000    -0.00026877931722     0.00000000000000     0.00000000000000     0.00013393297612
   58     0.00000000000000    -0.00077346476202     0.00000000000000     0.00000000000000     0.00038544503476
   59     0.00000000000000    -0.00171383457723     0.00000000000000     0.00000000000000     0.00085425095849
   60     0.00000000000000    -0.00387259404849     0.00000000000000     0.00000000000000     0.00193091258730
   61     0.00000000000000    -0.00677764355150     0.00000000000000     0.00000000000000     0.00333841769178
   62     0.00000000000000    -0.00938923753210     0.00000000000000     0.00000000000000     0.00437519547756
   63     0.00000000000000    -0.01349344605344     0.00000000000000     0.00000000000000     0.00483762190682
   64     0.00000000000000    -0.00008304224971     0.00000000000000     0.00000000000000     0.00006219810520
   65     0.00000000000000     0.00000000000000     0.00004160838799     0.00000000000000     0.00000000000000
   66     0.00022731334194     0.00000000000000     0.00000000000000     0.00004160838799     0.00000000000000
   67     0.00000000000000    -0.00038249743896     0.00000000000000     0.00000000000000     0.00028689675402
   68     0.00000000000000     0.00000000000000     0.00019194489095     0.00000000000000     0.00000000000000
   69     0.00104887540921     0.00000000000000     0.00000000000000     0.00019194489095     0.00000000000000
   70     0.00000000000000    -0.00147619585250     0.00000000000000     0.00000000000000     0.00111062596599
   71     0.00000000000000     0.00000000000000     0.00074625742046     0.00000000000000     0.00000000000000
   72     0.00408339622123     0.00000000000000     0.00000000000000     0.00074625742046     0.00000000000000
   73     0.00000000000000    -0.00386693850831     0.00000000000000     0.00000000000000     0.00282096967496
   74     0.00000000000000     0.00000000000000     0.00201544916947     0.00000000000000     0.00000000000000
   75     0.01109276756224     0.00000000000000     0.00000000000000     0.00201544916947     0.00000000000000
   76     0.00000000000000    -0.00836534658953     0.00000000000000     0.00000000000000     0.00408278597094
   77     0.00000000000000     0.00000000000000     0.00565315856211     0.00000000000000     0.00000000000000
   78     0.03175548868136     0.00000000000000     0.00000000000000     0.00565315856211     0.00000000000000
   79     0.00000000000000    -0.00005509983372     0.00000000000000     0.00000000000000     0.00005551084001
   80     0.00000000000000     0.00000000000000     0.00003212418511     0.00000000000000     0.00000000000000
   81     0.00017583948998     0.00000000000000     0.00000000000000     0.00003212418511     0.00000000000000
   82     0.00000000000000     0.00000000000000     0.00000000000000     0.00000000000000     0.00000000000000
   83     0.00000000000000     0.00000000000000     0.00000000000000     0.00000000000000     0.00000000000000
   84     0.00000000000000    -0.00044743880745     0.00000000000000     0.00000000000000     0.00045449522481
   85     0.00000000000000     0.00000000000000     0.00026401786697     0.00000000000000     0.00000000000000
   86     0.00145042728516     0.00000000000000     0.00000000000000     0.00026401786697     0.00000000000000
   87     0.00000000000000     0.00000000000000     0.00000000000000     0.00000000000000     0.00000000000000
   88     0.00000000000000     0.00000000000000     0.00000000000000     0.00000000000000     0.00000000000000
   89     0.00000000000000    -0.00200808552940     0.00000000000000     0.00000000000000     0.00199408058205
   90     0.00000000000000     0.00000000000000     0.00123592620764     0.00000000000000     0.00000000000000
   91     0.00688642326048     0.00000000000000     0.00000000000000     0.00123592620764     0.00000000000000
   92     0.00000000000000     0.00000000000000     0.00000000000000     0.00000000000000     0.00000000000000
   93     0.00000000000000     0.00000000000000     0.00000000000000     0.00000000000000     0.00000000000000
   94     0.00000000000000    -0.00647836652773     0.00000000000000     0.00000000000000     0.00312548775875
   95     0.00000000000000     0.00000000000000     0.00743470480851     0.00000000000000     0.00000000000000
   96     0.04371761928183     0.00000000000000     0.00000000000000     0.00743470480851     0.00000000000000
   97     0.00000000000000     0.00000000000000     0.00000000000000     0.00000000000000     0.00000000000000
   98     0.00000000000000     0.00000000000000     0.00000000000000     0.00000000000000     0.00000000000000
   99     0.00000000000000    -0.00025155014982     0.00000000000000     0.00000000000000     0.00032688210742
  100     0.00000000000000     0.00000000000000     0.00016131091014     0.00000000000000     0.00000000000000
  101     0.00089800618414     0.00000000000000     0.00000000000000     0.00016131091014     0.00000000000000
  102     0.00000000000000     0.00000000000000     0.00000000000000     0.00000000000000     0.00000000000000
  103     0.00000000000000     0.00000000000000     0.00000000000000     0.00000000000000     0.00000000000000
  104     0.00000000000000     0.00000000000000    -0.00000000000000     0.00000000000000     0.00000000000000
  105     0.00000000000000     0.00000000000000     0.00000000000000     0.00000000000000     0.00000000000000
  106     0.00000000000000    -0.00154644770243     0.00000000000000     0.00000000000000     0.00190851411822
  107     0.00000000000000     0.00000000000000     0.00106180277624     0.00000000000000     0.00000000000000
  108     0.00610592157600     0.00000000000000     0.00000000000000     0.00106180277624     0.00000000000000
  109     0.00000000000000     0.00000000000000     0.00000000000000     0.00000000000000     0.00000000000000
  110     0.00000000000000     0.00000000000000     0.00000000000000     0.00000000000000     0.00000000000000
  111     0.00000000000000     0.00000000000000     0.00000000000000     0.00000000000000     0.00000000000000
  112     0.00000000000000     0.00000000000000     0.00000000000000    -0.00000000000000     0.00000000000000

                11                  12                  13                  14                  15

    1     0.00000000000000     0.00000000000000     0.00000000000000     0.00000000000000     0.00000666127809
    2     0.00000000000000     0.00000000000000     0.00000000000000     0.00000000000000     0.00001753624094
    3     0.00000000000000     0.00000000000000     0.00000000000000     0.00000000000000     0.00003412073144
    4     0.00000000000000     0.00000000000000     0.00000000000000     0.00000000000000     0.00006296525172
    5     0.00000000000000     0.00000000000000     0.00000000000000     0.00000000000000     0.00009284115815
    6     0.00000000000000     0.00000000000000     0.00000000000000     0.00000000000000     0.00011666575394
    7     0.00000000000000     0.00000000000000     0.00000000000000     0.00000000000000     0.00016064534637
    8     0.00000000000000     0.00000000000000     0.00000000000000     0.00000000000000    -0.00000235597302
    9    -0.00000000000000     0.00000000000000     0.00000000000000     0.00000000000000     0.00000000000000
   10     0.00000000000000    -0.00000000000000     0.00000000000000     0.00000000000000     0.00000000000000
   11     0.00000000000000     0.00000000000000     0.00000000000000     0.00000000000000    -0.00000696695702
   12     0.00000000000000     0.00000000000000     0.00000000000000     0.00000000000000     0.00000000000000
   13     0.00000000000000     0.00000000000000     0.00000000000000     0.00000000000000     0.00000000000000
   14     0.00000000000000     0.00000000000000     0.00000000000000     0.00000000000000    -0.00001497510415
   15    -0.00000000000000     0.00000000000000     0.00000000000000     0.00000000000000     0.00000000000000
   16     0.00000000000000    -0.00000000000000     0.00000000000000     0.00000000000000     0.00000000000000
   17     0.00000000000000     0.00000000000000     0.00000000000000     0.00000000000000    -0.00002456233406
   18    -0.00000000000000     0.00000000000000     0.00000000000000     0.00000000000000     0.00000000000000
   19     0.00000000000000    -0.00000000000000     0.00000000000000     0.00000000000000     0.00000000000000
   20     0.00000000000000     0.00000000000000     0.00000000000000     0.00000000000000    -0.00004101908337
   21     0.00000000000000     0.00000000000000     0.00000000000000     0.00000000000000     0.00000000000000
   22     0.00000000000000     0.00000000000000     0.00000000000000     0.00000000000000     0.00000000000000
   23     0.00000000000000     0.00000000000000     0.00000000000000     0.00000000000000     0.00000124415713
   24     0.01359838368136     0.00000000000000     0.00000000000000     0.00000000000000     0.00000000000000
   25     0.00000000000000     0.01359838368136     0.00000000000000     0.00000000000000     0.00000000000000
   26     0.00000000000000     0.00000000000000     0.01359838368136     0.00000000000000     0.00000000000000
   27     0.00000000000000     0.00000000000000     0.00000000000000     0.01359838368136     0.00000000000000
   28     0.00000000000000     0.00000000000000     0.00000000000000     0.00000000000000     0.00000397553312
   29     0.02602280607241     0.00000000000000     0.00000000000000     0.00000000000000     0.00000000000000
   30     0.00000000000000     0.02602280607241     0.00000000000000     0.00000000000000     0.00000000000000
   31     0.00000000000000     0.00000000000000     0.02602280607241     0.00000000000000     0.00000000000000
   32     0.00000000000000     0.00000000000000     0.00000000000000     0.02602280607241     0.00000000000000
   33     0.00000000000000     0.00000000000000     0.00000000000000     0.00000000000000     0.00000850882683
   34     0.02724738797895     0.00000000000000     0.00000000000000     0.00000000000000     0.00000000000000
   35     0.00000000000000     0.02724738797895     0.00000000000000     0.00000000000000     0.00000000000000
   36     0.00000000000000     0.00000000000000     0.02724738797895     0.00000000000000     0.00000000000000
   37     0.00000000000000     0.00000000000000     0.00000000000000     0.02724738797895     0.00000000000000
   38     0.00000000000000     0.00000000000000     0.00000000000000     0.00000000000000     0.00002238840463
   39     0.01855589681252     0.00000000000000     0.00000000000000     0.00000000000000     0.00000000000000
   40     0.00000000000000     0.01855589681252     0.00000000000000     0.00000000000000     0.00000000000000
   41     0.00000000000000     0.00000000000000     0.01855589681252     0.00000000000000     0.00000000000000
   42     0.00000000000000     0.00000000000000     0.00000000000000     0.01855589681252     0.00000000000000
   43     0.00000000000000     0.00000000000000     0.00000000000000     0.00000000000000    -0.00000149755109
   44    -0.00000000000000     0.00000000000000     0.00000000000000     0.00000000000000     0.00000000000000
   45     0.00000000000000    -0.00000000000000     0.00000000000000     0.00000000000000     0.00000000000000
   46     0.00000000000000     0.00000000000000    -0.00000000000000     0.00000000000000     0.00000000000000
   47     0.00000000000000     0.00000000000000     0.00000000000000    -0.00000000000000     0.00000000000000
   48     0.00000000000000     0.00000000000000     0.00000000000000     0.00000000000000     0.00000000000000
   49     0.00000000000000    -0.00000000000000     0.00000000000000     0.00000000000000     0.00000000000000
   50     0.00000000000000     0.00000000000000     0.00000000000000     0.00000000000000    -0.00000427250229
   51    -0.00000000000000     0.00000000000000     0.00000000000000     0.00000000000000     0.00000000000000
   52     0.00000000000000    -0.00000000000000     0.00000000000000     0.00000000000000     0.00000000000000
   53     0.00000000000000     0.00000000000000    -0.00000000000000     0.00000000000000     0.00000000000000
   54     0.00000000000000     0.00000000000000     0.00000000000000    -0.00000000000000     0.00000000000000
   55     0.00000000000000     0.00000000000000     0.00000000000000     0.00000000000000     0.00000000000000
   56     0.00000000000000     0.00000000000000     0.00000000000000     0.00000000000000     0.00000000000000
   57     0.00000000000000     0.00000000000000     0.00000000000000     0.00000000000000     0.00000666127809
   58     0.00000000000000     0.00000000000000     0.00000000000000     0.00000000000000     0.00001753624094
   59     0.00000000000000     0.00000000000000     0.00000000000000     0.00000000000000     0.00003412073144
   60     0.00000000000000     0.00000000000000     0.00000000000000     0.00000000000000     0.00006296525172
   61     0.00000000000000     0.00000000000000     0.00000000000000     0.00000000000000     0.00009284115815
   62     0.00000000000000     0.00000000000000     0.00000000000000     0.00000000000000     0.00011666575394
   63     0.00000000000000     0.00000000000000     0.00000000000000     0.00000000000000     0.00016064534637
   64     0.00000000000000     0.00000000000000     0.00000000000000     0.00000000000000     0.00000235597302
   65    -0.00003591306985     0.00000000000000     0.00000000000000     0.00000000000000     0.00000000000000
   66     0.00000000000000    -0.00003591306985     0.00000000000000     0.00000000000000     0.00000000000000
   67     0.00000000000000     0.00000000000000     0.00000000000000     0.00000000000000     0.00000696695702
   68    -0.00016570426438     0.00000000000000     0.00000000000000     0.00000000000000     0.00000000000000
   69     0.00000000000000    -0.00016570426438     0.00000000000000     0.00000000000000     0.00000000000000
   70     0.00000000000000     0.00000000000000     0.00000000000000     0.00000000000000     0.00001497510415
   71    -0.00064452870457     0.00000000000000     0.00000000000000     0.00000000000000     0.00000000000000
   72     0.00000000000000    -0.00064452870457     0.00000000000000     0.00000000000000     0.00000000000000
   73     0.00000000000000     0.00000000000000     0.00000000000000     0.00000000000000     0.00002456233406
   74    -0.00172686770563     0.00000000000000     0.00000000000000     0.00000000000000     0.00000000000000
   75     0.00000000000000    -0.00172686770563     0.00000000000000     0.00000000000000     0.00000000000000
   76     0.00000000000000     0.00000000000000     0.00000000000000     0.00000000000000     0.00004101908337
   77    -0.00417325083803     0.00000000000000     0.00000000000000     0.00000000000000     0.00000000000000
   78     0.00000000000000    -0.00417325083803     0.00000000000000     0.00000000000000     0.00000000000000
   79     0.00000000000000     0.00000000000000     0.00000000000000     0.00000000000000     0.00000124415713
   80    -0.00003703581715     0.00000000000000     0.00000000000000     0.00000000000000     0.00000000000000
   81     0.00000000000000    -0.00003703581715     0.00000000000000     0.00000000000000     0.00000000000000
   82     0.00000000000000     0.00000000000000     0.00000926024220     0.00000000000000     0.00000000000000
   83     0.00000000000000     0.00000000000000     0.00000000000000     0.00000926024220     0.00000000000000
   84     0.00000000000000     0.00000000000000     0.00000000000000     0.00000000000000     0.00000397553312
   85    -0.00030499525026     0.00000000000000     0.00000000000000     0.00000000000000     0.00000000000000
   86     0.00000000000000    -0.00030499525026     0.00000000000000     0.00000000000000     0.00000000000000
   87     0.00000000000000     0.00000000000000     0.00007636782548     0.00000000000000     0.00000000000000
   88     0.00000000000000     0.00000000000000     0.00000000000000     0.00007636782548     0.00000000000000
   89     0.00000000000000     0.00000000000000     0.00000000000000     0.00000000000000     0.00000850882683
   90    -0.00141574448648     0.00000000000000     0.00000000000000     0.00000000000000     0.00000000000000
   91     0.00000000000000    -0.00141574448648     0.00000000000000     0.00000000000000     0.00000000000000
   92     0.00000000000000     0.00000000000000     0.00036114099340     0.00000000000000     0.00000000000000
   93     0.00000000000000     0.00000000000000     0.00000000000000     0.00036114099340     0.00000000000000
   94     0.00000000000000     0.00000000000000     0.00000000000000     0.00000000000000     0.00002238840463
   95    -0.00572209547385     0.00000000000000     0.00000000000000     0.00000000000000     0.00000000000000
   96     0.00000000000000    -0.00572209547385     0.00000000000000     0.00000000000000     0.00000000000000
   97     0.00000000000000     0.00000000000000     0.00221402244012     0.00000000000000     0.00000000000000
   98     0.00000000000000     0.00000000000000     0.00000000000000     0.00221402244012     0.00000000000000
   99     0.00000000000000     0.00000000000000     0.00000000000000     0.00000000000000     0.00000149755109
  100    -0.00023488444812     0.00000000000000     0.00000000000000     0.00000000000000     0.00000000000000
  101     0.00000000000000    -0.00023488444812     0.00000000000000     0.00000000000000     0.00000000000000
  102     0.00000000000000     0.00000000000000     0.00007468975286     0.00000000000000     0.00000000000000
  103     0.00000000000000     0.00000000000000     0.00000000000000     0.00007468975286     0.00000000000000
  104     0.00000000000000     0.00000000000000     0.00000000000000     0.00000000000000     0.00000000000000
  105     0.00000000000000    -0.00000000000000     0.00000000000000     0.00000000000000     0.00000000000000
  106     0.00000000000000     0.00000000000000     0.00000000000000     0.00000000000000     0.00000427250229
  107    -0.00150834213953     0.00000000000000     0.00000000000000     0.00000000000000     0.00000000000000
  108     0.00000000000000    -0.00150834213953     0.00000000000000     0.00000000000000     0.00000000000000
  109     0.00000000000000     0.00000000000000     0.00050137684814     0.00000000000000     0.00000000000000
  110     0.00000000000000     0.00000000000000     0.00000000000000     0.00050137684814     0.00000000000000
  111    -0.00000000000000     0.00000000000000     0.00000000000000     0.00000000000000     0.00000000000000
  112     0.00000000000000     0.00000000000000     0.00000000000000     0.00000000000000     0.00000000000000

                16                  17                  18                  19                  20

    1     0.00041587476418     0.01113710382365     0.00114680872164     0.00000000000000     0.00000000000000
    2     0.00108001980868     0.02740985195299     0.00294667244108     0.00000000000000     0.00000000000000
    3     0.00205444325700     0.04854289963404     0.00551944012914     0.00000000000000     0.00000000000000
    4     0.00363027207102     0.07804986443247     0.00952665712906     0.00000000000000     0.00000000000000
    5     0.00510060139843     0.10251465262634     0.01312435906915     0.00000000000000     0.00000000000000
    6     0.00616588897076     0.11929721678454     0.01567056630089     0.00000000000000     0.00000000000000
    7     0.00795600716443     0.14695594287292     0.01989303105149     0.00000000000000     0.00000000000000
    8    -0.00015760963522    -0.00144823531324    -0.00042224254981     0.00000000000000     0.00000000000000
    9     0.00000000000000     0.00000000000000     0.00000000000000     0.00003648791004     0.00000000000000
   10     0.00000000000000     0.00000000000000     0.00000000000000     0.00000000000000     0.00003648791004
   11    -0.00044816470533    -0.00362071246208    -0.00116023642584     0.00000000000000     0.00000000000000
   12     0.00000000000000     0.00000000000000     0.00000000000000     0.00010466020590     0.00000000000000
   13     0.00000000000000     0.00000000000000     0.00000000000000     0.00000000000000     0.00010466020590
   14    -0.00087637641881    -0.00591496134145    -0.00214713595155     0.00000000000000     0.00000000000000
   15     0.00000000000000     0.00000000000000     0.00000000000000     0.00020744713893     0.00000000000000
   16     0.00000000000000     0.00000000000000     0.00000000000000     0.00000000000000     0.00020744713893
   17    -0.00123259700399    -0.00705257169119    -0.00284718151958     0.00000000000000     0.00000000000000
   18     0.00000000000000     0.00000000000000     0.00000000000000     0.00029616571122     0.00000000000000
   19     0.00000000000000     0.00000000000000     0.00000000000000     0.00000000000000     0.00029616571122
   20    -0.00155288504428    -0.00742466707558    -0.00333903072503     0.00000000000000     0.00000000000000
   21     0.00000000000000     0.00000000000000     0.00000000000000     0.00038112266015     0.00000000000000
   22     0.00000000000000     0.00000000000000     0.00000000000000     0.00000000000000     0.00038112266015
   23     0.00008333018074     0.00023189970395     0.00020753842594     0.00000000000000     0.00000000000000
   24     0.00000000000000     0.00000000000000     0.00000000000000    -0.00003417515284     0.00000000000000
   25     0.00000000000000     0.00000000000000     0.00000000000000     0.00000000000000    -0.00003417515284
   26     0.00000000000000     0.00000000000000     0.00000000000000     0.00000000000000     0.00000000000000
   27     0.00000000000000     0.00000000000000     0.00000000000000     0.00000000000000     0.00000000000000
   28     0.00023793474045     0.00054656423176     0.00055049379737     0.00000000000000     0.00000000000000
   29     0.00000000000000     0.00000000000000     0.00000000000000    -0.00009912643670     0.00000000000000
   30     0.00000000000000     0.00000000000000     0.00000000000000     0.00000000000000    -0.00009912643670
   31     0.00000000000000     0.00000000000000     0.00000000000000     0.00000000000000     0.00000000000000
   32     0.00000000000000     0.00000000000000     0.00000000000000     0.00000000000000     0.00000000000000
   33     0.00039176534811     0.00072740114869     0.00082308861279     0.00000000000000     0.00000000000000
   34     0.00000000000000     0.00000000000000     0.00000000000000    -0.00016695589159     0.00000000000000
   35     0.00000000000000     0.00000000000000     0.00000000000000     0.00000000000000    -0.00016695589159
   36     0.00000000000000     0.00000000000000     0.00000000000000     0.00000000000000     0.00000000000000
   37     0.00000000000000     0.00000000000000     0.00000000000000     0.00000000000000     0.00000000000000
   38     0.00051923073736     0.00072946694117     0.00094122911205     0.00000000000000     0.00000000000000
   39     0.00000000000000     0.00000000000000     0.00000000000000    -0.00023267370800     0.00000000000000
   40     0.00000000000000     0.00000000000000     0.00000000000000     0.00000000000000    -0.00023267370800
   41     0.00000000000000     0.00000000000000     0.00000000000000     0.00000000000000     0.00000000000000
   42     0.00000000000000     0.00000000000000     0.00000000000000     0.00000000000000     0.00000000000000
   43    -0.00008345343297    -0.00006154529040    -0.00017556066095     0.00000000000000     0.00000000000000
   44     0.00000000000000     0.00000000000000     0.00000000000000     0.00005035174274     0.00000000000000
   45     0.00000000000000     0.00000000000000     0.00000000000000     0.00000000000000     0.00005035174274
   46     0.00000000000000     0.00000000000000     0.00000000000000     0.00000000000000     0.00000000000000
   47     0.00000000000000     0.00000000000000     0.00000000000000     0.00000000000000     0.00000000000000
   48     0.00000000000000     0.00000000000000     0.00000000000000    -0.00000000000000     0.00000000000000
   49     0.00000000000000     0.00000000000000     0.00000000000000     0.00000000000000     0.00000000000000
   50    -0.00015213747975    -0.00009298369574    -0.00028276366180     0.00000000000000     0.00000000000000
   51     0.00000000000000     0.00000000000000     0.00000000000000     0.00009482281413     0.00000000000000
   52     0.00000000000000     0.00000000000000     0.00000000000000     0.00000000000000     0.00009482281413
   53     0.00000000000000     0.00000000000000     0.00000000000000     0.00000000000000     0.00000000000000
   54     0.00000000000000     0.00000000000000     0.00000000000000     0.00000000000000     0.00000000000000
   55     0.00000000000000     0.00000000000000     0.00000000000000     0.00000000000000     0.00000000000000
   56     0.00000000000000     0.00000000000000     0.00000000000000     0.00000000000000     0.00000000000000
   57     0.00010703983023     0.00140513933057     0.00024253068948     0.00000000000000     0.00000000000000
   58     0.00030874290505     0.00404373828841     0.00069785247397     0.00000000000000     0.00000000000000
   59     0.00068524613846     0.00896161129547     0.00154514584391     0.00000000000000     0.00000000000000
   60     0.00154108795341     0.02027641863731     0.00347780146218     0.00000000000000     0.00000000000000
   61     0.00266134812133     0.03574631086028     0.00605261038034     0.00000000000000     0.00000000000000
   62     0.00367592548440     0.05067254617183     0.00843834834645     0.00000000000000     0.00000000000000
   63     0.00570213121215     0.08327040604191     0.01332517150325     0.00000000000000     0.00000000000000
   64     0.00002365111719     0.00023155366998     0.00005125103848     0.00000000000000     0.00000000000000
   65     0.00000000000000     0.00000000000000     0.00000000000000     0.00000538718845     0.00000000000000
   66     0.00000000000000     0.00000000000000     0.00000000000000     0.00000000000000     0.00000538718845
   67     0.00010912046372     0.00106727502671     0.00023270659545     0.00000000000000     0.00000000000000
   68     0.00000000000000     0.00000000000000     0.00000000000000     0.00002257656225     0.00000000000000
   69     0.00000000000000     0.00000000000000     0.00000000000000     0.00000000000000     0.00002257656225
   70     0.00040226812521     0.00413815744469     0.00086494242646     0.00000000000000     0.00000000000000
   71     0.00000000000000     0.00000000000000     0.00000000000000     0.00007216811211     0.00000000000000
   72     0.00000000000000     0.00000000000000     0.00000000000000     0.00000000000000     0.00007216811211
   73     0.00096532047208     0.01112176288755     0.00215512540268     0.00000000000000     0.00000000000000
   74     0.00000000000000     0.00000000000000     0.00000000000000     0.00014806716098     0.00000000000000
   75     0.00000000000000     0.00000000000000     0.00000000000000     0.00000000000000     0.00014806716098
   76     0.00214029930858     0.03063704151952     0.00509167409948     0.00000000000000     0.00000000000000
   77     0.00000000000000     0.00000000000000     0.00000000000000     0.00026203031381     0.00000000000000
   78     0.00000000000000     0.00000000000000     0.00000000000000     0.00000000000000     0.00026203031381
   79     0.00001461446435     0.00010973133676     0.00003116514398     0.00000000000000     0.00000000000000
   80     0.00000000000000     0.00000000000000     0.00000000000000     0.00000624364692     0.00000000000000
   81     0.00000000000000     0.00000000000000     0.00000000000000     0.00000000000000     0.00000624364692
   82     0.00000000000000     0.00000000000000     0.00000000000000     0.00000000000000     0.00000000000000
   83     0.00000000000000     0.00000000000000     0.00000000000000     0.00000000000000     0.00000000000000
   84     0.00010808502776     0.00089631858038     0.00022908471278     0.00000000000000     0.00000000000000
   85     0.00000000000000     0.00000000000000     0.00000000000000     0.00003652974134     0.00000000000000
   86     0.00000000000000     0.00000000000000     0.00000000000000     0.00000000000000     0.00003652974134
   87     0.00000000000000     0.00000000000000     0.00000000000000     0.00000000000000     0.00000000000000
   88     0.00000000000000     0.00000000000000     0.00000000000000     0.00000000000000     0.00000000000000
   89     0.00040240937633     0.00415760526357     0.00090429923484     0.00000000000000     0.00000000000000
   90     0.00000000000000     0.00000000000000     0.00000000000000     0.00010527061153     0.00000000000000
   91     0.00000000000000     0.00000000000000     0.00000000000000     0.00000000000000     0.00010527061153
   92     0.00000000000000     0.00000000000000     0.00000000000000     0.00000000000000     0.00000000000000
   93     0.00000000000000     0.00000000000000     0.00000000000000     0.00000000000000     0.00000000000000
   94     0.00145488183286     0.02387935346979     0.00366386250048     0.00000000000000     0.00000000000000
   95     0.00000000000000     0.00000000000000     0.00000000000000     0.00024136687472     0.00000000000000
   96     0.00000000000000     0.00000000000000     0.00000000000000     0.00000000000000     0.00024136687472
   97     0.00000000000000     0.00000000000000     0.00000000000000     0.00000000000000     0.00000000000000
   98     0.00000000000000     0.00000000000000     0.00000000000000     0.00000000000000     0.00000000000000
   99     0.00005331606648     0.00040770383831     0.00011646227284     0.00000000000000     0.00000000000000
  100     0.00000000000000     0.00000000000000     0.00000000000000     0.00002402605999     0.00000000000000
  101     0.00000000000000     0.00000000000000     0.00000000000000     0.00000000000000     0.00002402605999
  102     0.00000000000000     0.00000000000000     0.00000000000000     0.00000000000000     0.00000000000000
  103     0.00000000000000     0.00000000000000     0.00000000000000     0.00000000000000     0.00000000000000
  104     0.00000000000000     0.00000000000000     0.00000000000000    -0.00000000000000     0.00000000000000
  105     0.00000000000000     0.00000000000000     0.00000000000000     0.00000000000000     0.00000000000000
  106     0.00024993780782     0.00265690601816     0.00058800848827     0.00000000000000     0.00000000000000
  107     0.00000000000000     0.00000000000000     0.00000000000000     0.00007931627226     0.00000000000000
  108     0.00000000000000     0.00000000000000     0.00000000000000     0.00000000000000     0.00007931627226
  109     0.00000000000000     0.00000000000000     0.00000000000000     0.00000000000000     0.00000000000000
  110     0.00000000000000     0.00000000000000     0.00000000000000     0.00000000000000     0.00000000000000
  111     0.00000000000000     0.00000000000000     0.00000000000000     0.00000000000000     0.00000000000000
  112     0.00000000000000     0.00000000000000     0.00000000000000     0.00000000000000     0.00000000000000

                21                  22                  23                  24                  25

    1     0.03298694654747     0.00000000000000     0.00000000000000     0.00165013712855     0.00000000000000
    2     0.08084981901348     0.00000000000000     0.00000000000000     0.00428020452766     0.00000000000000
    3     0.14240311514843     0.00000000000000     0.00000000000000     0.00810677592655     0.00000000000000
    4     0.22735426092542     0.00000000000000     0.00000000000000     0.01414618234022     0.00000000000000
    5     0.29717827075774     0.00000000000000     0.00000000000000     0.01956473517661     0.00000000000000
    6     0.34491184586869     0.00000000000000     0.00000000000000     0.02336710306580     0.00000000000000
    7     0.42352621442976     0.00000000000000     0.00000000000000     0.02961001766833     0.00000000000000
    8    -0.00274675619636     0.00000000000000     0.00000000000000    -0.00067631569978     0.00000000000000
    9     0.00000000000000     0.00109882738983     0.00000000000000     0.00000000000000     0.00009040948561
   10     0.00000000000000     0.00000000000000     0.00109882738983     0.00000000000000     0.00000000000000
   11    -0.00677038539888     0.00000000000000     0.00000000000000    -0.00189248853002     0.00000000000000
   12     0.00000000000000     0.00274369543076     0.00000000000000     0.00000000000000     0.00026686608251
   13     0.00000000000000     0.00000000000000     0.00274369543076     0.00000000000000     0.00000000000000
   14    -0.01082602418057     0.00000000000000     0.00000000000000    -0.00354315325372     0.00000000000000
   15     0.00000000000000     0.00447433421765     0.00000000000000     0.00000000000000     0.00054403611666
   16     0.00000000000000     0.00000000000000     0.00447433421765     0.00000000000000     0.00000000000000
   17    -0.01262887858352     0.00000000000000     0.00000000000000    -0.00466505915435     0.00000000000000
   18     0.00000000000000     0.00532627718615     0.00000000000000     0.00000000000000     0.00078465577658
   19     0.00000000000000     0.00000000000000     0.00532627718615     0.00000000000000     0.00000000000000
   20    -0.01293129357359     0.00000000000000     0.00000000000000    -0.00531033161789     0.00000000000000
   21     0.00000000000000     0.00559721410459     0.00000000000000     0.00000000000000     0.00100007070957
   22     0.00000000000000     0.00000000000000     0.00559721410459     0.00000000000000     0.00000000000000
   23     0.00023350247469     0.00000000000000     0.00000000000000     0.00037807789275     0.00000000000000
   24     0.00000000000000    -0.00027206740109     0.00000000000000     0.00000000000000    -0.00009513723283
   25     0.00000000000000     0.00000000000000    -0.00027206740109     0.00000000000000     0.00000000000000
   26     0.00000000000000     0.00000000000000     0.00000000000000     0.00000000000000     0.00000000000000
   27     0.00000000000000     0.00000000000000     0.00000000000000     0.00000000000000     0.00000000000000
   28     0.00052642295269     0.00000000000000     0.00000000000000     0.00100749989785     0.00000000000000
   29     0.00000000000000    -0.00064108649400     0.00000000000000     0.00000000000000    -0.00028291797585
   30     0.00000000000000     0.00000000000000    -0.00064108649400     0.00000000000000     0.00000000000000
   31     0.00000000000000     0.00000000000000     0.00000000000000     0.00000000000000     0.00000000000000
   32     0.00000000000000     0.00000000000000     0.00000000000000     0.00000000000000     0.00000000000000
   33     0.00065765793627     0.00000000000000     0.00000000000000     0.00146011510338     0.00000000000000
   34     0.00000000000000    -0.00085320730969     0.00000000000000     0.00000000000000    -0.00047463166765
   35     0.00000000000000     0.00000000000000    -0.00085320730969     0.00000000000000     0.00000000000000
   36     0.00000000000000     0.00000000000000     0.00000000000000     0.00000000000000     0.00000000000000
   37     0.00000000000000     0.00000000000000     0.00000000000000     0.00000000000000     0.00000000000000
   38     0.00058026949184     0.00000000000000     0.00000000000000     0.00148069146086     0.00000000000000
   39     0.00000000000000    -0.00085629621222     0.00000000000000     0.00000000000000    -0.00061681263427
   40     0.00000000000000     0.00000000000000    -0.00085629621222     0.00000000000000     0.00000000000000
   41     0.00000000000000     0.00000000000000     0.00000000000000     0.00000000000000     0.00000000000000
   42     0.00000000000000     0.00000000000000     0.00000000000000     0.00000000000000     0.00000000000000
   43    -0.00001508462043     0.00000000000000     0.00000000000000    -0.00035579497379     0.00000000000000
   44     0.00000000000000     0.00009144069069     0.00000000000000     0.00000000000000     0.00015600827487
   45     0.00000000000000     0.00000000000000     0.00009144069069     0.00000000000000     0.00000000000000
   46     0.00000000000000     0.00000000000000     0.00000000000000     0.00000000000000     0.00000000000000
   47     0.00000000000000     0.00000000000000     0.00000000000000     0.00000000000000     0.00000000000000
   48     0.00000000000000     0.00000000000000     0.00000000000000     0.00000000000000     0.00000000000000
   49     0.00000000000000     0.00000000000000    -0.00000000000000     0.00000000000000     0.00000000000000
   50    -0.00001615134850     0.00000000000000     0.00000000000000    -0.00052894867422     0.00000000000000
   51     0.00000000000000     0.00013871547070     0.00000000000000     0.00000000000000     0.00028124348657
   52     0.00000000000000     0.00000000000000     0.00013871547070     0.00000000000000     0.00000000000000
   53     0.00000000000000     0.00000000000000     0.00000000000000     0.00000000000000     0.00000000000000
   54     0.00000000000000     0.00000000000000     0.00000000000000     0.00000000000000     0.00000000000000
   55     0.00000000000000     0.00000000000000     0.00000000000000     0.00000000000000    -0.00000000000000
   56     0.00000000000000     0.00000000000000     0.00000000000000     0.00000000000000     0.00000000000000
   57     0.00392001091576     0.00000000000000     0.00000000000000     0.00035272772152     0.00000000000000
   58     0.01128145492659     0.00000000000000     0.00000000000000     0.00101511596210     0.00000000000000
   59     0.02500406701037     0.00000000000000     0.00000000000000     0.00224967504788     0.00000000000000
   60     0.05659795686024     0.00000000000000     0.00000000000000     0.00508325064254     0.00000000000000
   61     0.09988897030517     0.00000000000000     0.00000000000000     0.00889644219994     0.00000000000000
   62     0.14183477433413     0.00000000000000     0.00000000000000     0.01244991831520     0.00000000000000
   63     0.23422850607299     0.00000000000000     0.00000000000000     0.01972786895208     0.00000000000000
   64     0.00062662463865     0.00000000000000     0.00000000000000     0.00007221314751     0.00000000000000
   65     0.00000000000000     0.00001202760689     0.00000000000000     0.00000000000000     0.00000873652647
   66     0.00000000000000     0.00000000000000     0.00001202760689     0.00000000000000     0.00000000000000
   67     0.00289100211357     0.00000000000000     0.00000000000000     0.00033251983500     0.00000000000000
   68     0.00000000000000     0.00005528539950     0.00000000000000     0.00000000000000     0.00003989299876
   69     0.00000000000000     0.00000000000000     0.00005528539950     0.00000000000000     0.00000000000000
   70     0.01124530623706     0.00000000000000     0.00000000000000     0.00127104651009     0.00000000000000
   71     0.00000000000000     0.00021209878971     0.00000000000000     0.00000000000000     0.00014499660444
   72     0.00000000000000     0.00000000000000     0.00021209878971     0.00000000000000     0.00000000000000
   73     0.03043510462097     0.00000000000000     0.00000000000000     0.00324425323770     0.00000000000000
   74     0.00000000000000     0.00055454234932     0.00000000000000     0.00000000000000     0.00032811827716
   75     0.00000000000000     0.00000000000000     0.00055454234932     0.00000000000000     0.00000000000000
   76     0.08543753362101     0.00000000000000     0.00000000000000     0.00773322623751     0.00000000000000
   77     0.00000000000000     0.00142927843877     0.00000000000000     0.00000000000000     0.00062337764038
   78     0.00000000000000     0.00000000000000     0.00142927843877     0.00000000000000     0.00000000000000
   79     0.00028871410779     0.00000000000000     0.00000000000000     0.00004439613844     0.00000000000000
   80     0.00000000000000     0.00001036632115     0.00000000000000     0.00000000000000     0.00001100084727
   81     0.00000000000000     0.00000000000000     0.00001036632115     0.00000000000000     0.00000000000000
   82     0.00000000000000     0.00000000000000     0.00000000000000     0.00000000000000     0.00000000000000
   83     0.00000000000000     0.00000000000000     0.00000000000000     0.00000000000000     0.00000000000000
   84     0.00237577905828     0.00000000000000     0.00000000000000     0.00034731931877     0.00000000000000
   85     0.00000000000000     0.00008267595549     0.00000000000000     0.00000000000000     0.00007803236530
   86     0.00000000000000     0.00000000000000     0.00008267595549     0.00000000000000     0.00000000000000
   87     0.00000000000000     0.00000000000000     0.00000000000000    -0.00000000000000     0.00000000000000
   88     0.00000000000000     0.00000000000000     0.00000000000000     0.00000000000000     0.00000000000000
   89     0.01118390169756     0.00000000000000     0.00000000000000     0.00142352852889     0.00000000000000
   90     0.00000000000000     0.00036131773958     0.00000000000000     0.00000000000000     0.00025670497200
   91     0.00000000000000     0.00000000000000     0.00036131773958     0.00000000000000     0.00000000000000
   92     0.00000000000000     0.00000000000000     0.00000000000000     0.00000000000000     0.00000000000000
   93     0.00000000000000     0.00000000000000     0.00000000000000     0.00000000000000     0.00000000000000
   94     0.06721506533624     0.00000000000000     0.00000000000000     0.00568167385859     0.00000000000000
   95     0.00000000000000     0.00177893496984     0.00000000000000     0.00000000000000     0.00063267298118
   96     0.00000000000000     0.00000000000000     0.00177893496984     0.00000000000000     0.00000000000000
   97     0.00000000000000     0.00000000000000     0.00000000000000     0.00000000000000     0.00000000000000
   98     0.00000000000000     0.00000000000000     0.00000000000000     0.00000000000000     0.00000000000000
   99     0.00106525976611     0.00000000000000     0.00000000000000     0.00019153627887     0.00000000000000
  100     0.00000000000000     0.00005277955601     0.00000000000000     0.00000000000000     0.00005940490742
  101     0.00000000000000     0.00000000000000     0.00005277955601     0.00000000000000     0.00000000000000
  102     0.00000000000000     0.00000000000000     0.00000000000000     0.00000000000000     0.00000000000000
  103     0.00000000000000     0.00000000000000     0.00000000000000     0.00000000000000     0.00000000000000
  104     0.00000000000000     0.00000000000000     0.00000000000000     0.00000000000000    -0.00000000000000
  105     0.00000000000000     0.00000000000000     0.00000000000000     0.00000000000000     0.00000000000000
  106     0.00710992887527     0.00000000000000     0.00000000000000     0.00097727838246     0.00000000000000
  107     0.00000000000000     0.00030892508704     0.00000000000000     0.00000000000000     0.00021715576176
  108     0.00000000000000     0.00000000000000     0.00030892508704     0.00000000000000     0.00000000000000
  109     0.00000000000000     0.00000000000000     0.00000000000000     0.00000000000000     0.00000000000000
  110     0.00000000000000     0.00000000000000     0.00000000000000     0.00000000000000     0.00000000000000
  111     0.00000000000000     0.00000000000000     0.00000000000000     0.00000000000000     0.00000000000000
  112     0.00000000000000     0.00000000000000     0.00000000000000     0.00000000000000     0.00000000000000

                26                  27                  28                  29                  30

    1     0.00000000000000     0.00000000000000     0.00000000000000    -0.24940293943883     0.24142803846997
    2     0.00000000000000     0.00000000000000     0.00000000000000    -0.46128305248748     0.57621677500719
    3     0.00000000000000     0.00000000000000     0.00000000000000    -0.61772760671455     1.08882887945626
    4     0.00000000000000     0.00000000000000     0.00000000000000    -0.76616389612790     2.03835438863667
    5     0.00000000000000     0.00000000000000     0.00000000000000    -0.88616995570346     2.97679532412230
    6     0.00000000000000     0.00000000000000     0.00000000000000    -0.97614084764714     3.64574447565171
    7     0.00000000000000     0.00000000000000     0.00000000000000    -1.13905719500290     4.73261122417138
    8     0.00000000000000     0.00000000000000     0.00000000000000     0.00000000000000    -0.00000000000000
    9     0.00000000000000     0.00000000000000     0.00000000000000     0.00000000000000     0.00000000000000
   10     0.00009040948561     0.00000000000000     0.00000000000000     0.00000000000000     0.00000000000000
   11     0.00000000000000     0.00000000000000     0.00000000000000     0.00000000000000     0.00000000000000
   12     0.00000000000000     0.00000000000000     0.00000000000000     0.00000000000000     0.00000000000000
   13     0.00026686608251     0.00000000000000     0.00000000000000     0.00000000000000     0.00000000000000
   14     0.00000000000000     0.00000000000000     0.00000000000000     0.00000000000000    -0.00000000000000
   15     0.00000000000000     0.00000000000000     0.00000000000000     0.00000000000000     0.00000000000000
   16     0.00054403611666     0.00000000000000     0.00000000000000     0.00000000000000     0.00000000000000
   17     0.00000000000000     0.00000000000000     0.00000000000000     0.00000000000000    -0.00000000000000
   18     0.00000000000000     0.00000000000000     0.00000000000000     0.00000000000000     0.00000000000000
   19     0.00078465577658     0.00000000000000     0.00000000000000     0.00000000000000     0.00000000000000
   20     0.00000000000000     0.00000000000000     0.00000000000000    -0.00000000000000     0.00000000000000
   21     0.00000000000000     0.00000000000000     0.00000000000000     0.00000000000000     0.00000000000000
   22     0.00100007070957     0.00000000000000     0.00000000000000     0.00000000000000     0.00000000000000
   23     0.00000000000000     0.00000000000000     0.00000000000000     0.00000000000000     0.00000000000000
   24     0.00000000000000     0.00000000000000     0.00000000000000     0.00000000000000     0.00000000000000
   25    -0.00009513723283     0.00000000000000     0.00000000000000     0.00000000000000     0.00000000000000
   26     0.00000000000000     0.00000694272234     0.00000000000000     0.00000000000000     0.00000000000000
   27     0.00000000000000     0.00000000000000     0.00000694272234     0.00000000000000     0.00000000000000
   28     0.00000000000000     0.00000000000000     0.00000000000000     0.00000000000000     0.00000000000000
   29     0.00000000000000     0.00000000000000     0.00000000000000     0.00000000000000     0.00000000000000
   30    -0.00028291797585     0.00000000000000     0.00000000000000     0.00000000000000     0.00000000000000
   31     0.00000000000000     0.00002291189088     0.00000000000000     0.00000000000000     0.00000000000000
   32     0.00000000000000     0.00000000000000     0.00002291189088     0.00000000000000     0.00000000000000
   33     0.00000000000000     0.00000000000000     0.00000000000000     0.00000000000000     0.00000000000000
   34     0.00000000000000     0.00000000000000     0.00000000000000     0.00000000000000     0.00000000000000
   35    -0.00047463166765     0.00000000000000     0.00000000000000     0.00000000000000     0.00000000000000
   36     0.00000000000000     0.00004400372813     0.00000000000000     0.00000000000000     0.00000000000000
   37     0.00000000000000     0.00000000000000     0.00004400372813     0.00000000000000     0.00000000000000
   38     0.00000000000000     0.00000000000000     0.00000000000000     0.00000000000000     0.00000000000000
   39     0.00000000000000     0.00000000000000     0.00000000000000     0.00000000000000     0.00000000000000
   40    -0.00061681263427     0.00000000000000     0.00000000000000     0.00000000000000     0.00000000000000
   41     0.00000000000000     0.00007063228034     0.00000000000000     0.00000000000000     0.00000000000000
   42     0.00000000000000     0.00000000000000     0.00007063228034     0.00000000000000     0.00000000000000
   43     0.00000000000000     0.00000000000000     0.00000000000000     0.00000000000000    -0.00000000000000
   44     0.00000000000000     0.00000000000000     0.00000000000000     0.00000000000000     0.00000000000000
   45     0.00015600827487     0.00000000000000     0.00000000000000     0.00000000000000     0.00000000000000
   46     0.00000000000000    -0.00002182088412     0.00000000000000     0.00000000000000     0.00000000000000
   47     0.00000000000000     0.00000000000000    -0.00002182088412     0.00000000000000     0.00000000000000
   48     0.00000000000000     0.00000000000000     0.00000000000000     0.00000000000000     0.00000000000000
   49    -0.00000000000000     0.00000000000000     0.00000000000000     0.00000000000000     0.00000000000000
   50     0.00000000000000     0.00000000000000     0.00000000000000     0.00000000000000     0.00000000000000
   51     0.00000000000000     0.00000000000000     0.00000000000000     0.00000000000000     0.00000000000000
   52     0.00028124348657     0.00000000000000     0.00000000000000     0.00000000000000     0.00000000000000
   53     0.00000000000000    -0.00004668624729     0.00000000000000     0.00000000000000     0.00000000000000
   54     0.00000000000000     0.00000000000000    -0.00004668624729     0.00000000000000     0.00000000000000
   55     0.00000000000000     0.00000000000000     0.00000000000000     0.00000000000000     0.00000000000000
   56     0.00000000000000     0.00000000000000     0.00000000000000     0.00000000000000     0.00000000000000
   57     0.00000000000000     0.00000000000000     0.00000000000000    -0.00962691640383     0.04536844152846
   58     0.00000000000000     0.00000000000000     0.00000000000000    -0.02770546020652     0.13056652768009
   59     0.00000000000000     0.00000000000000     0.00000000000000    -0.06140644615046     0.28938707451297
   60     0.00000000000000     0.00000000000000     0.00000000000000    -0.13900927632326     0.65504626826832
   61     0.00000000000000     0.00000000000000     0.00000000000000    -0.24551496800918     1.15548030849043
   62     0.00000000000000     0.00000000000000     0.00000000000000    -0.34952546503917     1.63805854519993
   63     0.00000000000000     0.00000000000000     0.00000000000000    -0.58331768940207     2.69773543173305
   64     0.00000000000000     0.00000000000000     0.00000000000000    -0.00149036912658     0.00702350544816
   65     0.00000000000000     0.00000000000000     0.00000000000000     0.00000000000000     0.00000000000000
   66     0.00000873652647     0.00000000000000     0.00000000000000     0.00000000000000     0.00000000000000
   67     0.00000000000000     0.00000000000000     0.00000000000000    -0.00687694191624     0.03240650963266
[...]
    3     0.00000000000000    -0.00000000000000
    4    -0.00000000000000    -0.00000000000000
    5    -0.00000000000000    -0.00000000000000
    6    -0.00000000000000    -0.00000000000000
    7     0.00000000000000     0.00000000000000
    8     0.00000000000000     0.00000000000000
    9     0.00000000000000    -0.00000000000000
   10    -0.00000000000000    -0.00000000000000
   11     0.00000000000000     0.00000000000000
   12    -0.00000000000000     0.00000000000000
   13    -0.00000000000000     0.00000000000000
   14     0.00000000000000     0.00000000000000
   15    -0.00000000000000     0.00000000000000
   16    -0.00000000000000    -0.00000000000000
   17     0.00000000000000    -0.00000000000000
   18    -0.00000000000000     0.00000000000000
   19    -0.00000000000000    -0.00000000000000
   20     0.00000000000000     0.00000000000000
   21     0.00000000000000     0.00000000000000
   22     0.00000000000000    -0.00000000000000
   23    -0.00000000000000    -0.00000000000000
   24    -0.00000000000000     0.00000000000000
   25    -0.00000000000000    -0.00000000000000
   26    -0.00000000000000    -0.00000000000000
   27     0.00000000000000    -0.00000000000000
   28     0.00000000000000     0.00000000000000
   29    -0.00000000000000     0.00000000000000
   30     0.00000000000000    -0.00000000000000
   31     0.00000000000000    -0.00000000000000
   32    -0.00000000000000    -0.00000000000000
   33    -0.00000000000000     0.00000000000000
   34    -0.00000000000000    -0.00000000000000
   35     0.00000000000000    -0.00000000000000
   36     0.00000000000000     0.00000000000000
   37    -0.00000000000000    -0.00000000000000
   38     0.00000000000000     0.00000000000000
   39    -0.00000000000000    -0.00000000000000
   40     0.00000000000000     0.00000000000000
   41     0.00000000000000    -0.00000000000000
   42     0.00000000000000     0.00000000000000
   43     0.00000000000000    -0.00000000000000
   44     0.00000000000000     0.00000000000000
   45     0.00000000000000    -0.00000000000000
   46     0.00000000000000     0.00000000000000
   47     0.00000000000000     0.00000000000000
   48     0.00000000000000     0.00000000000000
   49    -0.00000000000000     0.00000000000000
   50    -0.00000000000000    -0.00000000000000
   51    -0.00000000000000     0.00000000000000
   52     0.00000000000000     0.00000000000000
   53    -0.00000000000000     0.00000000000000
   54    -0.00000000000000    -0.00000000000000
   55    -0.00000000000000     0.00000000000000
   56     0.00000000000000    -0.00000000000000
   57    -0.00000000000000     0.00000000000000
   58     0.00000000000000    -0.00000000000000
   59     0.00000000000000    -0.00000000000000
   60     0.00000000000000    -0.00000000000000
   61    -0.00000000000000    -0.00000000000000
   62     0.00000000000000     0.00000000000000
   63    -0.00000000000000    -0.00000000000000
   64    -0.00000000000000    -0.00000000000000
   65    -0.00000000000000    -0.00000000000000
   66    -0.00000000000000    -0.00000000000000
   67    -0.00000000000000     0.00000000000000
   68    -0.00000000000000     0.00000000000000
   69     0.00000000000000    -0.00000000000000
   70     0.00000000000000    -0.00000000000000
   71     0.00000000000000     0.00000000000000
   72    -0.00000000000000    -0.00000000000000
   73     0.00000000000000     0.00000000000000
   74     0.00000000000000    -0.00000000000000
   75     0.00000000000000    -0.00000000000000
   76     0.00000000000000     0.00000000000000
   77    -0.00000000000000     0.00000000000000
   78     0.00000000000000     0.00000000000000
   79    -0.00000000000000     0.00000000000000
   80     0.00000000000000    -0.00000000000000
   81    -0.00000000000000     0.00000000000000
   82    -0.00000000000000     0.00000000000000
   83    -0.00000000000000    -0.00000000000000
   84     0.00000000000000     0.00000000000000
   85    -0.00000000000000    -0.00000000000000
   86     0.00000000000000     0.00000000000000
   87    -0.00000000000000     0.00000000000000
   88    -0.00000000000000     0.00000000000000
   89     0.07047748580393     0.02609105062414
   90     0.02609105062414    -0.07047748580393
   91     0.06840711737933     0.02767751497318
   92    -0.02767751497318     0.06840711737933
   93    -0.00000000000000     0.00000000000000
   94     0.00000000000000     0.00000000000000
   95    -0.00000000000000    -0.00000000000000
   96     0.00000000000000     0.00000000000000
   97     0.00000000000000    -0.00000000000000
   98    -0.00000000000000    -0.00000000000000
   99     0.00000000000000     0.00000000000000
  100    -0.00000000000000    -0.00000000000000
  101    -0.00000000000000    -0.00000000000000
  102     0.00000000000000     0.00000000000000
  103     0.00000000000000    -0.00000000000000
  104    -0.00000000000000     0.00000000000000
  105    -0.00000000000000     0.00000000000000
  106    -0.00000000000000    -0.00000000000000
  107    -0.00000000000000    -0.00000000000000
  108    -0.02609105062414     0.07047748580393
  109     0.07047748580393     0.02609105062414
  110    -0.02767751497318     0.06840711737933
  111    -0.06840711737933    -0.02767751497318
  112    -0.00000000000000    -0.00000000000000
  113    -0.00000000000000     0.00000000000000
  114    -0.00000000000000    -0.00000000000000
  115     0.00000000000000     0.00000000000000
  116     0.00000000000000     0.00000000000000
  117     0.00000000000000     0.00000000000000
  118     0.00000000000000     0.00000000000000
  119     0.00000000000000     0.00000000000000
  120    -0.00000000000000     0.00000000000000
  121     0.00000000000000     0.00000000000000
  122    -0.00000000000000    -0.00000000000000
  123     0.00000000000000     0.00000000000000
  124    -0.00000000000000     0.00000000000000
  125     0.00000000000000    -0.00000000000000
  126     0.00000000000000    -0.00000000000000
  127    -0.00000000000000    -0.00000000000000
  128    -0.00000000000000     0.00000000000000
  129    -0.00000000000000    -0.00000000000000
  130     0.00000000000000    -0.00000000000000
  131     0.00000000000000    -0.00000000000000
  132     0.00000000000000     0.00000000000000
  133     0.00000000000000     0.00000000000000
  134     0.00000000000000     0.00000000000000
  135    -0.00000000000000    -0.00000000000000
  136     0.00000000000000    -0.00000000000000
  137    -0.00000000000000     0.00000000000000
  138     0.00000000000000    -0.00000000000000
  139     0.00000000000000    -0.00000000000000
  140    -0.00000000000000    -0.00000000000000
  141    -0.00000000000000    -0.00000000000000
  142     0.00000000000000     0.00000000000000
  143    -0.00000000000000    -0.00000000000000
  144    -0.00000000000000    -0.00000000000000
  145     0.00000000000000    -0.00000000000000
  146    -0.07128148972695    -0.02494852215426
  147    -0.02494852215426     0.07128148972695
  148    -0.07153531256350    -0.02746490896618
  149     0.02746490896618    -0.07153531256350
  150     0.00000000000000    -0.00000000000000
  151    -0.00000000000000    -0.00000000000000
  152    -0.00000000000000     0.00000000000000
  153     0.00000000000000    -0.00000000000000
  154    -0.00000000000000     0.00000000000000
  155     0.00000000000000     0.00000000000000
  156    -0.00000000000000    -0.00000000000000
  157     0.00000000000000     0.00000000000000
  158     0.00000000000000     0.00000000000000
  159    -0.00000000000000    -0.00000000000000
  160    -0.00000000000000     0.00000000000000
  161     0.00000000000000    -0.00000000000000
  162     0.00000000000000    -0.00000000000000
  163     0.00000000000000    -0.00000000000000
  164     0.00000000000000     0.00000000000000
  165     0.02494852215426    -0.07128148972695
  166    -0.07128148972695    -0.02494852215426
  167     0.02746490896618    -0.07153531256350
  168     0.07153531256350     0.02746490896618
  169     0.00000000000000    -0.00000000000000
  170    -0.00000000000000    -0.00000000000000
  171    -0.00000000000000     0.00000000000000



	----------------------------------------------------------
	 ==================> DF-MP2 Energies <=================== 
	----------------------------------------------------------
	 Reference Energy          =    -198.6621948644014992 [H]
	 Singles Energy            =      -0.0000000000000000 [H]
	 Same-Spin Energy          =      -0.1001893456628390 [H]
	 Opposite-Spin Energy      =      -0.2745090021630288 [H]
	 Correlation Energy        =      -0.3746983478258678 [H]
	 Total Energy              =    -199.0368932122273691 [H]
	----------------------------------------------------------
	 ================> DF-SCS-MP2 Energies <================= 
	----------------------------------------------------------
	 SCS Same-Spin Scale       =       0.3333333333333333 [-]
	 SCS Opposite-Spin Scale   =       1.2000000000000000 [-]
	 SCS Same-Spin Energy      =      -0.0333964485542797 [H]
	 SCS Opposite-Spin Energy  =      -0.3294108025956345 [H]
	 SCS Correlation Energy    =      -0.3628072511499142 [H]
	 SCS Total Energy          =    -199.0250021155514162 [H]
	----------------------------------------------------------


*** tstop() called on Kevins-MacBook-Pro.local at Fri Dec 12 16:55:12 2014
Module time:
	user time   =       0.37 seconds =       0.01 minutes
	system time =       0.21 seconds =       0.00 minutes
	total time  =          0 seconds =       0.00 minutes
Total time:
	user time   =       0.64 seconds =       0.01 minutes
	system time =       0.23 seconds =       0.00 minutes
	total time  =          0 seconds =       0.00 minutes

*** tstart() called on Kevins-MacBook-Pro.local
*** at Fri Dec 12 16:55:13 2014

	There are an even number of electrons - assuming singlet.
	Specify the multiplicity with the MULTP option in the
	input if this is incorrect


         ---------------------------------------------------------
                                   SCF
            by Justin Turney, Rob Parrish, and Andy Simmonett
                              RHF Reference
                        1 Threads,    256 MiB Core
         ---------------------------------------------------------

  ==> Geometry <==

    Molecular point group: c1
    Full point group: D_inf_h

    Geometry (in Angstrom), charge = 0, multiplicity = 1:

       Center              X                  Y                   Z       
    ------------   -----------------  -----------------  -----------------
           F          0.000000000000     0.000000000000     0.600000000000
           F          0.000000000000     0.000000000000    -0.600000000000

  Running in c1 symmetry.


	Rotational constants (cm^-1):
	A = **********    B =    1.23239   C =    1.23239

	Rotational constants (MHz):
	A = **********    B = 36946.01470   C = 36946.01470
  Nuclear repulsion =   35.719461579825001

  Charge       = 0
  Multiplicity = 1
  Electrons    = 18
  Nalpha       = 9
  Nbeta        = 9

  ==> Algorithm <==

  SCF Algorithm Type is PK.
  DIIS enabled.
  MOM disabled.
  Fractional occupation disabled.
  Guess Type is CORE.
  Energy threshold   = 1.00e-08
  Density threshold  = 1.00e-08
  Integral threshold = 0.00e+00

  ==> Primary Basis <==

  Basis Set: CC-PVDZ
    Number of shells: 12
    Number of basis function: 28
    Number of Cartesian functions: 30
    Spherical Harmonics?: true
    Max angular momentum: 2

  ==> Pre-Iterations <==

   -------------------------------------------------------
    Irrep   Nso     Nmo     Nalpha   Nbeta   Ndocc  Nsocc
   -------------------------------------------------------
     A         28      28       0       0       0       0
   -------------------------------------------------------
    Total      28      28       9       9       9       0
   -------------------------------------------------------

  Starting with a DF guess...

 OEINTS: Wrapper to libmints.
   by Justin Turney

   Calculation information:
      Number of atoms:                   2
      Number of AO shells:              12
      Number of SO shells:              12
      Number of primitives:             44
      Number of atomic orbitals:        30
      Number of basis functions:        28

      Number of irreps:                  1
      Number of functions per irrep: [  28 ]

      Overlap, kinetic, potential, dipole, and quadrupole integrals
        stored in file 35.

  ==> Integral Setup <==

  ==> DFJK: Density-Fitted J/K Matrices <==

    J tasked:                  Yes
    K tasked:                  Yes
    wK tasked:                  No
    OpenMP threads:              1
    Integrals threads:           1
    Memory (MB):               183
    Algorithm:                Core
    Integral Cache:           NONE
    Schwarz Cutoff:          1E-12
    Fitting Condition:       1E-12

   => Auxiliary Basis Set <=

  Basis Set: CC-PVDZ-JKFIT
    Number of shells: 48
    Number of basis function: 140
    Number of Cartesian functions: 162
    Spherical Harmonics?: true
    Max angular momentum: 3

  Minimum eigenvalue in the overlap matrix is 3.3063305955E-02.
  Using Symmetric Orthogonalization.
  SCF Guess: Core (One-Electron) Hamiltonian.

  ==> Iterations <==

                           Total Energy        Delta E     RMS |[F,P]|

   @DF-RHF iter   1:  -188.26879287125257   -1.88269e+02   1.47962e-01 
   @DF-RHF iter   2:  -196.56399493481541   -8.29520e+00   9.82219e-02 DIIS
   @DF-RHF iter   3:  -198.64627881792174   -2.08228e+00   8.67406e-03 DIIS
   @DF-RHF iter   4:  -198.66142326425611   -1.51444e-02   1.33893e-03 DIIS
   @DF-RHF iter   5:  -198.66215219148336   -7.28927e-04   3.17752e-04 DIIS
   @DF-RHF iter   6:  -198.66219443958991   -4.22481e-05   3.19991e-05 DIIS
   @DF-RHF iter   7:  -198.66219486127997   -4.21690e-07   3.03394e-06 DIIS
   @DF-RHF iter   8:  -198.66219486438285   -3.10288e-09   2.53595e-07 DIIS
   @DF-RHF iter   9:  -198.66219486440127   -1.84173e-11   1.95044e-08 DIIS
   @DF-RHF iter  10:  -198.66219486440139   -1.13687e-13   1.47079e-09 DIIS

  DF guess converged.

  ==> Integral Setup <==

 MINTS: Wrapper to libmints.
   by Justin Turney

   Calculation information:
      Number of atoms:                   2
      Number of AO shells:              12
      Number of SO shells:              12
      Number of primitives:             44
      Number of atomic orbitals:        30
      Number of basis functions:        28

      Number of irreps:                  1
      Integral cutoff                 0.00e+00
      Number of functions per irrep: [  28 ]

      Overlap, kinetic, potential, dipole, and quadrupole integrals
        stored in file 35.

      Computing two-electron integrals...done
      Computed 19386 non-zero two-electron integrals.
        Stored in file 33.

	Batch   1 pq = [       0,     406] index = [             0,82621]
  ==> DiskJK: Disk-Based J/K Matrices <==

    J tasked:                  Yes
    K tasked:                  Yes
    wK tasked:                  No
    Memory (MB):               183
    Schwarz Cutoff:          1E-12

   @RHF iter  11:  -198.66238715894085   -1.92295e-04   3.42392e-05 DIIS
   @RHF iter  12:  -198.66238737543344   -2.16493e-07   4.95755e-06 DIIS
   @RHF iter  13:  -198.66238738033726   -4.90382e-09   1.10535e-06 DIIS
   @RHF iter  14:  -198.66238738057808   -2.40817e-10   1.83235e-07 DIIS
   @RHF iter  15:  -198.66238738058624   -8.15703e-12   2.70555e-08 DIIS
   @RHF iter  16:  -198.66238738058649   -2.55795e-13   2.25419e-09 DIIS

  ==> Post-Iterations <==

	Orbital Energies (a.u.)
	-----------------------

	Doubly Occupied:                                                      

	   1A    -26.404239     2A    -26.403801     3A     -1.920003  
	   4A     -1.430141     5A     -0.869238     6A     -0.869238  
	   7A     -0.831156     8A     -0.608840     9A     -0.608840  

	Virtual:                                                              

	  10A      0.322323    11A      1.308695    12A      1.343791  
	  13A      1.343791    14A      1.492389    15A      1.492389  
	  16A      1.520864    17A      1.782694    18A      2.423886  
	  19A      3.396485    20A      3.396485    21A      3.677538  
	  22A      3.795833    23A      3.795833    24A      3.984986  
	  25A      3.984986    26A      4.543107    27A      4.543107  
	  28A      5.471897  

	Final Occupation by Irrep:
	          A 
	DOCC [     9 ]

  Energy converged.

  @RHF Final Energy:  -198.66238738058649

   => Energetics <=

    Nuclear Repulsion Energy =             35.7194615798250013
    One-Electron Energy =                -348.8727046189800376
    Two-Electron Energy =                 114.4908556585685488
    DFT Exchange-Correlation Energy =       0.0000000000000000
    Empirical Dispersion Energy =           0.0000000000000000
    Total Energy =                       -198.6623873805864946



Properties will be evaluated at   0.000000,   0.000000,   0.000000 Bohr
  ==> Properties <==


Properties computed using the SCF density matrix

  Nuclear Dipole Moment: (a.u.)
     X:     0.0000      Y:     0.0000      Z:     0.0000

  Electronic Dipole Moment: (a.u.)
     X:     0.0000      Y:     0.0000      Z:    -0.0000

  Dipole Moment: (a.u.)
     X:     0.0000      Y:     0.0000      Z:    -0.0000     Total:     0.0000

  Dipole Moment: (Debye)
     X:     0.0000      Y:     0.0000      Z:    -0.0000     Total:     0.0000


  Saving occupied orbitals to File 180.

*** tstop() called on Kevins-MacBook-Pro.local at Fri Dec 12 16:55:13 2014
Module time:
	user time   =       0.42 seconds =       0.01 minutes
	system time =       0.02 seconds =       0.00 minutes
	total time  =          0 seconds =       0.00 minutes
Total time:
	user time   =       1.09 seconds =       0.02 minutes
	system time =       0.25 seconds =       0.00 minutes
	total time  =          1 seconds =       0.02 minutes
Reading options from the DFMP2 block
Calling plugin dfmp2.so.

*** tstart() called on Kevins-MacBook-Pro.local
*** at Fri Dec 12 16:55:13 2014

  ==> DF-MP2 <==

   => Sizing <=

    Memory  =         244 MB
    Threads =           1
    no      =           9
    nv      =          19
    nn      =          28
    nQ      =         112

   => Molecule <=

    Molecular point group: c1
    Full point group: D_inf_h

    Geometry (in Angstrom), charge = 0, multiplicity = 1:

       Center              X                  Y                   Z       
    ------------   -----------------  -----------------  -----------------
           F          0.000000000000     0.000000000000     0.600000000000
           F          0.000000000000     0.000000000000    -0.600000000000

   => Primary Basis <=

  Basis Set: CC-PVDZ
    Number of shells: 12
    Number of basis function: 28
    Number of Cartesian functions: 30
    Spherical Harmonics?: true
    Max angular momentum: 2

   => Auxiliary Basis <=

  Basis Set: CC-PVDZ-RI
    Number of shells: 36
    Number of basis function: 112
    Number of Cartesian functions: 132
    Spherical Harmonics?: true
    Max angular momentum: 3

  ==> DFERI: Density Fitted 3-Index Tensors <==

    Schwarz cutoff =   0.000E+00
    J cutoff       =   1.000E-12
    Mem (GB)       =           0

   => Auxiliary Basis <=

  Basis Set: CC-PVDZ-RI
    Number of shells: 36
    Number of basis function: 112
    Number of Cartesian functions: 132
    Spherical Harmonics?: true
    Max angular momentum: 3

    @DF-MP2 Correlation Energy:      -0.3747697819327194

*** tstop() called on Kevins-MacBook-Pro.local at Fri Dec 12 16:55:13 2014
Module time:
	user time   =       0.17 seconds =       0.00 minutes
	system time =       0.00 seconds =       0.00 minutes
	total time  =          0 seconds =       0.00 minutes
Total time:
	user time   =       1.27 seconds =       0.02 minutes
	system time =       0.25 seconds =       0.00 minutes
	total time  =          1 seconds =       0.02 minutes

*** PSI4 exiting successfully. Buy a developer a beer!
