    -----------------------------------------------------------------------
          PSI4: An Open-Source Ab Initio Electronic Structure Package
                              PSI 4.0 Driver

               Git: Rev {master} 556e8139d3cfa1f96ccffe2cdf22cc56a185d2b2

    J. M. Turney, A. C. Simmonett, R. M. Parrish, E. G. Hohenstein,
    F. A. Evangelista, J. T. Fermann, B. J. Mintz, L. A. Burns, J. J. Wilke,
    M. L. Abrams, N. J. Russ, M. L. Leininger, C. L. Janssen, E. T. Seidl,
    W. D. Allen, H. F. Schaefer, R. A. King, E. F. Valeev, C. D. Sherrill,
    and T. D. Crawford, WIREs Comput. Mol. Sci. 2, 556-565 (2012)
    (doi: 10.1002/wcms.93)

                         Additional Contributions by
    A. E. DePrince, M. Saitow, U. Bozkaya, A. Yu. Sokolov
    -----------------------------------------------------------------------

    Process ID:  50257
    PSI4DATADIR: /Users/kevinhannon/Programs/psi4cmake/psi4/lib
    Memory level set to 256.000 MB

  ==> Input File <==

--------------------------------------------------------------------------

# PYTHONPATH must include directory above plugin directory.
#     Define either externally or here, then import plugin.
sys.path.insert(0, './..')
import dfmp2

molecule {
0 1
F 
F 1 1.2
symmetry c1
}

set {
  basis 6-31g
  df_basis_mp2 cc-pvdz-ri
  freeze_core false
  scf_type df
  memory 3gb
}

set dfmp2 {
 print 1
 cholesky_tolerance 1e-3
}
energy('scf')
energy('mp2')
energy('conv-mp2')
energy('dfmp2')

dfmp2.exampleFN()

--------------------------------------------------------------------------

*** tstart() called on Kevins-MacBook-Pro.local
*** at Thu Jan  8 00:09:23 2015

dfmp2.so loaded.

*** tstart() called on Kevins-MacBook-Pro.local
*** at Thu Jan  8 00:09:23 2015


         ---------------------------------------------------------
                                   SCF
            by Justin Turney, Rob Parrish, and Andy Simmonett
                              RHF Reference
                        1 Threads,    256 MiB Core
         ---------------------------------------------------------

  ==> Geometry <==

    Molecular point group: c1
    Full point group: D_inf_h

    Geometry (in Angstrom), charge = 0, multiplicity = 1:

       Center              X                  Y                   Z       
    ------------   -----------------  -----------------  -----------------
           F          0.000000000000     0.000000000000    -0.600000000000
           F          0.000000000000     0.000000000000     0.600000000000

  Running in c1 symmetry.

  Rotational constants: A = ************  B =      1.23239  C =      1.23239 [cm^-1]
  Rotational constants: A = ************  B =  36946.01470  C =  36946.01470 [MHz]
  Nuclear repulsion =   35.719461579825001

  Charge       = 0
  Multiplicity = 1
  Electrons    = 18
  Nalpha       = 9
  Nbeta        = 9

  ==> Algorithm <==

  SCF Algorithm Type is DF.
  DIIS enabled.
  MOM disabled.
  Fractional occupation disabled.
  Guess Type is CORE.
  Energy threshold   = 1.00e-06
  Density threshold  = 1.00e-06
  Integral threshold = 0.00e+00

  ==> Primary Basis <==

  Basis Set: 6-31G
    Number of shells: 10
    Number of basis function: 18
    Number of Cartesian functions: 18
    Spherical Harmonics?: false
    Max angular momentum: 1

  ==> Pre-Iterations <==

   -------------------------------------------------------
    Irrep   Nso     Nmo     Nalpha   Nbeta   Ndocc  Nsocc
   -------------------------------------------------------
     A         18      18       0       0       0       0
   -------------------------------------------------------
    Total      18      18       9       9       9       0
   -------------------------------------------------------

 OEINTS: Overlap, kinetic, potential, dipole, and quadrupole integrals
         stored in file 35.

  ==> Integral Setup <==

  ==> DFJK: Density-Fitted J/K Matrices <==

    J tasked:                  Yes
    K tasked:                  Yes
    wK tasked:                  No
    OpenMP threads:              1
    Integrals threads:           1
    Memory (MB):               183
    Algorithm:                Core
    Integral Cache:           NONE
    Schwarz Cutoff:          1E-12
    Fitting Condition:       1E-12

   => Auxiliary Basis Set <=

  Basis Set: 
    Number of shells: 48
    Number of basis function: 162
    Number of Cartesian functions: 162
    Spherical Harmonics?: false
    Max angular momentum: 3

  Minimum eigenvalue in the overlap matrix is 4.0681194403E-02.
  Using Symmetric Orthogonalization.
  SCF Guess: Core (One-Electron) Hamiltonian.

  ==> Iterations <==

                           Total Energy        Delta E     RMS |[F,P]|

   @DF-RHF iter   1:  -188.79990054301996   -1.88800e+02   2.07874e-01 
   @DF-RHF iter   2:  -196.96625765181730   -8.16636e+00   1.32699e-01 DIIS
   @DF-RHF iter   3:  -198.57900087412719   -1.61274e+00   1.01972e-02 DIIS
   @DF-RHF iter   4:  -198.59119827478617   -1.21974e-02   1.38850e-03 DIIS
   @DF-RHF iter   5:  -198.59149976063060   -3.01486e-04   1.54581e-04 DIIS
   @DF-RHF iter   6:  -198.59150388350443   -4.12287e-06   1.40559e-05 DIIS
   @DF-RHF iter   7:  -198.59150391621006   -3.27056e-08   8.15298e-07 DIIS

  ==> Post-Iterations <==

    Orbital Energies (a.u.)
    -----------------------

    Doubly Occupied:                                                      

       1A    -26.410970     2A    -26.410621     3A     -1.937795  
       4A     -1.430180     5A     -0.879183     6A     -0.879183  
       7A     -0.816690     8A     -0.622371     9A     -0.622371  

    Virtual:                                                              

      10A      0.299492    11A      1.377861    12A      1.377861  
      13A      1.399384    14A      1.517134    15A      1.541461  
      16A      1.541461    17A      1.797008    18A      2.172110  

    Final Occupation by Irrep:
              A 
    DOCC [     9 ]

  Energy converged.

  @DF-RHF Final Energy:  -198.59150391621006

   => Energetics <=

    Nuclear Repulsion Energy =             35.7194615798250013
    One-Electron Energy =                -348.6032311807421138
    Two-Electron Energy =                 114.2922656847070613
    DFT Exchange-Correlation Energy =       0.0000000000000000
    Empirical Dispersion Energy =           0.0000000000000000
    Total Energy =                       -198.5915039162100584



Properties will be evaluated at   0.000000,   0.000000,   0.000000 Bohr
  ==> Properties <==


Properties computed using the SCF density matrix

  Nuclear Dipole Moment: (a.u.)
     X:     0.0000      Y:     0.0000      Z:     0.0000

  Electronic Dipole Moment: (a.u.)
     X:     0.0000      Y:    -0.0000      Z:    -0.0000

  Dipole Moment: (a.u.)
     X:     0.0000      Y:    -0.0000      Z:    -0.0000     Total:     0.0000

  Dipole Moment: (Debye)
     X:     0.0000      Y:    -0.0000      Z:    -0.0000     Total:     0.0000


  Saving occupied orbitals to File 180.

*** tstop() called on Kevins-MacBook-Pro.local at Thu Jan  8 00:09:24 2015
Module time:
	user time   =       0.58 seconds =       0.01 minutes
	system time =       0.02 seconds =       0.00 minutes
	total time  =          1 seconds =       0.02 minutes
Total time:
	user time   =       0.63 seconds =       0.01 minutes
	system time =       0.03 seconds =       0.00 minutes
	total time  =          1 seconds =       0.02 minutes

*** tstart() called on Kevins-MacBook-Pro.local
*** at Thu Jan  8 00:09:24 2015


         ---------------------------------------------------------
                                   SCF
            by Justin Turney, Rob Parrish, and Andy Simmonett
                              RHF Reference
                        1 Threads,    256 MiB Core
         ---------------------------------------------------------

  ==> Geometry <==

    Molecular point group: c1
    Full point group: D_inf_h

    Geometry (in Angstrom), charge = 0, multiplicity = 1:

       Center              X                  Y                   Z       
    ------------   -----------------  -----------------  -----------------
           F          0.000000000000     0.000000000000    -0.600000000000
           F          0.000000000000     0.000000000000     0.600000000000

  Running in c1 symmetry.

  Rotational constants: A = ************  B =      1.23239  C =      1.23239 [cm^-1]
  Rotational constants: A = ************  B =  36946.01470  C =  36946.01470 [MHz]
  Nuclear repulsion =   35.719461579825001

  Charge       = 0
  Multiplicity = 1
  Electrons    = 18
  Nalpha       = 9
  Nbeta        = 9

  ==> Algorithm <==

  SCF Algorithm Type is DF.
  DIIS enabled.
  MOM disabled.
  Fractional occupation disabled.
  Guess Type is CORE.
  Energy threshold   = 1.00e-08
  Density threshold  = 1.00e-08
  Integral threshold = 0.00e+00

  ==> Primary Basis <==

  Basis Set: 6-31G
    Number of shells: 10
    Number of basis function: 18
    Number of Cartesian functions: 18
    Spherical Harmonics?: false
    Max angular momentum: 1

  ==> Pre-Iterations <==

   -------------------------------------------------------
    Irrep   Nso     Nmo     Nalpha   Nbeta   Ndocc  Nsocc
   -------------------------------------------------------
     A         18      18       0       0       0       0
   -------------------------------------------------------
    Total      18      18       9       9       9       0
   -------------------------------------------------------

 OEINTS: Overlap, kinetic, potential, dipole, and quadrupole integrals
         stored in file 35.

  ==> Integral Setup <==

  ==> DFJK: Density-Fitted J/K Matrices <==

    J tasked:                  Yes
    K tasked:                  Yes
    wK tasked:                  No
    OpenMP threads:              1
    Integrals threads:           1
    Memory (MB):               183
    Algorithm:                Core
    Integral Cache:           NONE
    Schwarz Cutoff:          1E-12
    Fitting Condition:       1E-12

   => Auxiliary Basis Set <=

  Basis Set: 
    Number of shells: 48
    Number of basis function: 162
    Number of Cartesian functions: 162
    Spherical Harmonics?: false
    Max angular momentum: 3

  Minimum eigenvalue in the overlap matrix is 4.0681194403E-02.
  Using Symmetric Orthogonalization.
  SCF Guess: Core (One-Electron) Hamiltonian.

  ==> Iterations <==

                           Total Energy        Delta E     RMS |[F,P]|

   @DF-RHF iter   1:  -188.79990054301996   -1.88800e+02   2.07874e-01 
   @DF-RHF iter   2:  -196.96625765181730   -8.16636e+00   1.32699e-01 DIIS
   @DF-RHF iter   3:  -198.57900087412719   -1.61274e+00   1.01972e-02 DIIS
   @DF-RHF iter   4:  -198.59119827478617   -1.21974e-02   1.38850e-03 DIIS
   @DF-RHF iter   5:  -198.59149976063060   -3.01486e-04   1.54581e-04 DIIS
   @DF-RHF iter   6:  -198.59150388350443   -4.12287e-06   1.40559e-05 DIIS
   @DF-RHF iter   7:  -198.59150391621006   -3.27056e-08   8.15298e-07 DIIS
   @DF-RHF iter   8:  -198.59150391629194   -8.18829e-11   5.05747e-08 DIIS
   @DF-RHF iter   9:  -198.59150391629220   -2.55795e-13   5.14377e-09 DIIS

  ==> Post-Iterations <==

    Orbital Energies (a.u.)
    -----------------------

    Doubly Occupied:                                                      

       1A    -26.410971     2A    -26.410621     3A     -1.937795  
       4A     -1.430180     5A     -0.879183     6A     -0.879183  
       7A     -0.816690     8A     -0.622372     9A     -0.622372  

    Virtual:                                                              

      10A      0.299492    11A      1.377862    12A      1.377862  
      13A      1.399384    14A      1.517134    15A      1.541461  
      16A      1.541461    17A      1.797009    18A      2.172111  

    Final Occupation by Irrep:
              A 
    DOCC [     9 ]

  Energy converged.

  @DF-RHF Final Energy:  -198.59150391629220

   => Energetics <=

    Nuclear Repulsion Energy =             35.7194615798250013
    One-Electron Energy =                -348.6031974436837686
    Two-Electron Energy =                 114.2922319475665205
    DFT Exchange-Correlation Energy =       0.0000000000000000
    Empirical Dispersion Energy =           0.0000000000000000
    Total Energy =                       -198.5915039162922540



Properties will be evaluated at   0.000000,   0.000000,   0.000000 Bohr
  ==> Properties <==


Properties computed using the SCF density matrix

  Nuclear Dipole Moment: (a.u.)
     X:     0.0000      Y:     0.0000      Z:     0.0000

  Electronic Dipole Moment: (a.u.)
     X:     0.0000      Y:    -0.0000      Z:    -0.0000

  Dipole Moment: (a.u.)
     X:     0.0000      Y:    -0.0000      Z:    -0.0000     Total:     0.0000

  Dipole Moment: (Debye)
     X:     0.0000      Y:    -0.0000      Z:    -0.0000     Total:     0.0000


  Saving occupied orbitals to File 180.

*** tstop() called on Kevins-MacBook-Pro.local at Thu Jan  8 00:09:24 2015
Module time:
	user time   =       0.56 seconds =       0.01 minutes
	system time =       0.02 seconds =       0.00 minutes
	total time  =          0 seconds =       0.00 minutes
Total time:
	user time   =       1.22 seconds =       0.02 minutes
	system time =       0.05 seconds =       0.00 minutes
	total time  =          1 seconds =       0.02 minutes

  //>>>>>>>>>>>>>>>>>>>>>>>>>>>>>>>>>>>//
  //               DFMP2               //
  //<<<<<<<<<<<<<<<<<<<<<<<<<<<<<<<<<<<//


*** tstart() called on Kevins-MacBook-Pro.local
*** at Thu Jan  8 00:09:24 2015

	 --------------------------------------------------------
	                          DF-MP2                         
	      2nd-Order Density-Fitted Moller-Plesset Theory     
	              RMP2 Wavefunction,   1 Threads             
	                                                         
	        Rob Parrish, Justin Turney, Andy Simmonett,      
	           Ed Hohenstein, and C. David Sherrill          
	 --------------------------------------------------------

   => Auxiliary Basis Set <=

  Basis Set: CC-PVDZ-RI
    Number of shells: 36
    Number of basis function: 112
    Number of Cartesian functions: 132
    Spherical Harmonics?: true
    Max angular momentum: 3

	 --------------------------------------------------------
	                 NBF =    18, NAUX =   112
	 --------------------------------------------------------
	   CLASS    FOCC     OCC    AOCC    AVIR     VIR    FVIR
	   PAIRS       0       9       9       9       9       0
	 --------------------------------------------------------

	----------------------------------------------------------
	 ==================> DF-MP2 Energies <=================== 
	----------------------------------------------------------
	 Reference Energy          =    -198.5915039162921971 [H]
	 Singles Energy            =      -0.0000000000000003 [H]
	 Same-Spin Energy          =      -0.0614976096113195 [H]
	 Opposite-Spin Energy      =      -0.1776864713559110 [H]
	 Correlation Energy        =      -0.2391840809672307 [H]
	 Total Energy              =    -198.8306879972594174 [H]
	----------------------------------------------------------
	 ================> DF-SCS-MP2 Energies <================= 
	----------------------------------------------------------
	 SCS Same-Spin Scale       =       0.3333333333333333 [-]
	 SCS Opposite-Spin Scale   =       1.2000000000000000 [-]
	 SCS Same-Spin Energy      =      -0.0204992032037732 [H]
	 SCS Opposite-Spin Energy  =      -0.2132237656270932 [H]
	 SCS Correlation Energy    =      -0.2337229688308666 [H]
	 SCS Total Energy          =    -198.8252268851230724 [H]
	----------------------------------------------------------


*** tstop() called on Kevins-MacBook-Pro.local at Thu Jan  8 00:09:25 2015
Module time:
	user time   =       0.30 seconds =       0.01 minutes
	system time =       0.01 seconds =       0.00 minutes
	total time  =          1 seconds =       0.02 minutes
Total time:
	user time   =       1.52 seconds =       0.03 minutes
	system time =       0.06 seconds =       0.00 minutes
	total time  =          2 seconds =       0.03 minutes
 MINTS: Wrapper to libmints.
   by Justin Turney

   Calculation information:
      Number of atoms:                   2
      Number of AO shells:              10
      Number of SO shells:              10
      Number of primitives:             28
      Number of atomic orbitals:        18
      Number of basis functions:        18

      Number of irreps:                  1
      Integral cutoff                 0.00e+00
      Number of functions per irrep: [  18 ]

 OEINTS: Overlap, kinetic, potential, dipole, and quadrupole integrals
         stored in file 35.

      Computing two-electron integrals...done
      Computed 4350 non-zero two-electron integrals.
        Stored in file 33.


*** tstart() called on Kevins-MacBook-Pro.local
*** at Thu Jan  8 00:09:25 2015


         ---------------------------------------------------------
                                   SCF
            by Justin Turney, Rob Parrish, and Andy Simmonett
                              RHF Reference
                        1 Threads,    256 MiB Core
         ---------------------------------------------------------

  ==> Geometry <==

    Molecular point group: c1
    Full point group: D_inf_h

    Geometry (in Angstrom), charge = 0, multiplicity = 1:

       Center              X                  Y                   Z       
    ------------   -----------------  -----------------  -----------------
           F          0.000000000000     0.000000000000    -0.600000000000
           F          0.000000000000     0.000000000000     0.600000000000

  Running in c1 symmetry.

  Rotational constants: A = ************  B =      1.23239  C =      1.23239 [cm^-1]
  Rotational constants: A = ************  B =  36946.01470  C =  36946.01470 [MHz]
  Nuclear repulsion =   35.719461579825001

  Charge       = 0
  Multiplicity = 1
  Electrons    = 18
  Nalpha       = 9
  Nbeta        = 9

  ==> Algorithm <==

  SCF Algorithm Type is DF.
  DIIS enabled.
  MOM disabled.
  Fractional occupation disabled.
  Guess Type is CORE.
  Energy threshold   = 1.00e-08
  Density threshold  = 1.00e-08
  Integral threshold = 0.00e+00

  ==> Primary Basis <==

  Basis Set: 6-31G
    Number of shells: 10
    Number of basis function: 18
    Number of Cartesian functions: 18
    Spherical Harmonics?: false
    Max angular momentum: 1

  ==> Pre-Iterations <==

   -------------------------------------------------------
    Irrep   Nso     Nmo     Nalpha   Nbeta   Ndocc  Nsocc
   -------------------------------------------------------
     A         18      18       0       0       0       0
   -------------------------------------------------------
    Total      18      18       9       9       9       0
   -------------------------------------------------------

 OEINTS: Overlap, kinetic, potential, dipole, and quadrupole integrals
         stored in file 35.

  ==> Integral Setup <==

  ==> DFJK: Density-Fitted J/K Matrices <==

    J tasked:                  Yes
    K tasked:                  Yes
    wK tasked:                  No
    OpenMP threads:              1
    Integrals threads:           1
    Memory (MB):               183
    Algorithm:                Core
    Integral Cache:           NONE
    Schwarz Cutoff:          1E-12
    Fitting Condition:       1E-12

   => Auxiliary Basis Set <=

  Basis Set: 
    Number of shells: 48
    Number of basis function: 162
    Number of Cartesian functions: 162
    Spherical Harmonics?: false
    Max angular momentum: 3

  Minimum eigenvalue in the overlap matrix is 4.0681194403E-02.
  Using Symmetric Orthogonalization.
  SCF Guess: Core (One-Electron) Hamiltonian.

  ==> Iterations <==

                           Total Energy        Delta E     RMS |[F,P]|

   @DF-RHF iter   1:  -188.79990054301996   -1.88800e+02   2.07874e-01 
   @DF-RHF iter   2:  -196.96625765181730   -8.16636e+00   1.32699e-01 DIIS
   @DF-RHF iter   3:  -198.57900087412719   -1.61274e+00   1.01972e-02 DIIS
   @DF-RHF iter   4:  -198.59119827478617   -1.21974e-02   1.38850e-03 DIIS
   @DF-RHF iter   5:  -198.59149976063060   -3.01486e-04   1.54581e-04 DIIS
   @DF-RHF iter   6:  -198.59150388350443   -4.12287e-06   1.40559e-05 DIIS
   @DF-RHF iter   7:  -198.59150391621006   -3.27056e-08   8.15298e-07 DIIS
   @DF-RHF iter   8:  -198.59150391629194   -8.18829e-11   5.05747e-08 DIIS
   @DF-RHF iter   9:  -198.59150391629220   -2.55795e-13   5.14377e-09 DIIS

  ==> Post-Iterations <==

    Orbital Energies (a.u.)
    -----------------------

    Doubly Occupied:                                                      

       1A    -26.410971     2A    -26.410621     3A     -1.937795  
       4A     -1.430180     5A     -0.879183     6A     -0.879183  
       7A     -0.816690     8A     -0.622372     9A     -0.622372  

    Virtual:                                                              

      10A      0.299492    11A      1.377862    12A      1.377862  
      13A      1.399384    14A      1.517134    15A      1.541461  
      16A      1.541461    17A      1.797009    18A      2.172111  

    Final Occupation by Irrep:
              A 
    DOCC [     9 ]

  Energy converged.

  @DF-RHF Final Energy:  -198.59150391629220

   => Energetics <=

    Nuclear Repulsion Energy =             35.7194615798250013
    One-Electron Energy =                -348.6031974436837686
    Two-Electron Energy =                 114.2922319475665205
    DFT Exchange-Correlation Energy =       0.0000000000000000
    Empirical Dispersion Energy =           0.0000000000000000
    Total Energy =                       -198.5915039162922540



Properties will be evaluated at   0.000000,   0.000000,   0.000000 Bohr
  ==> Properties <==


Properties computed using the SCF density matrix

  Nuclear Dipole Moment: (a.u.)
     X:     0.0000      Y:     0.0000      Z:     0.0000

  Electronic Dipole Moment: (a.u.)
     X:     0.0000      Y:    -0.0000      Z:    -0.0000

  Dipole Moment: (a.u.)
     X:     0.0000      Y:    -0.0000      Z:    -0.0000     Total:     0.0000

  Dipole Moment: (Debye)
     X:     0.0000      Y:    -0.0000      Z:    -0.0000     Total:     0.0000


  Saving occupied orbitals to File 180.

*** tstop() called on Kevins-MacBook-Pro.local at Thu Jan  8 00:09:25 2015
Module time:
	user time   =       0.56 seconds =       0.01 minutes
	system time =       0.01 seconds =       0.00 minutes
	total time  =          0 seconds =       0.00 minutes
Total time:
	user time   =       2.25 seconds =       0.04 minutes
	system time =       0.08 seconds =       0.00 minutes
	total time  =          2 seconds =       0.03 minutes

*** tstart() called on Kevins-MacBook-Pro.local
*** at Thu Jan  8 00:09:25 2015



  Options:
  ----------------------------------------------------------------------------
  BENCH                       => 0                
  CACHELEVEL                  => 2                
  CCL_ENERGY                  => FALSE            
  CC_DIIS_MAX_VECS            => 6                
  CC_DIIS_MIN_VECS            => 2                
  CC_MAXITER                  => 50               
  CC_TYPE                     => CONVENTIONAL     
  CEPA_OS_SCALE               => 1.27             
  CEPA_SOS_SCALE              => 1.3              
  CEPA_SS_SCALE               => 1.13             
  CEPA_TYPE                   => CEPA0            
  CUTOFF                      => 14               
  DEBUG                       => 0                
  DERTYPE                     => NONE             
  DF_BASIS_CC                 => (empty)          
  DIE_IF_NOT_CONVERGED        => TRUE             
  DKH_ORDER                   => 2                
  DOCC                        => [  ]             
  DO_DIIS                     => TRUE             
  DO_LEVEL_SHIFT              => TRUE             
  DO_SCS                      => FALSE            
  DO_SOS                      => FALSE            
  E3_SCALE                    => 0.25             
  EA_POLES                    => FALSE            
  EKT_EA                      => FALSE            
  EKT_IP                      => FALSE            
  EP_EA_POLES                 => FALSE            
  EP_IP_POLES                 => FALSE            
  EP_MAXITER                  => 30               
  EXTERNAL_POTENTIAL_SYMMETRY => FALSE            
  E_CONVERGENCE               => 1e-06           !
  FREEZE_CORE                 => FALSE           !
  FROZEN_DOCC                 => [  ]             
  FROZEN_UOCC                 => [  ]             
  INTEGRAL_PACKAGE            => ERD              
  IP_POLES                    => FALSE            
  LEVEL_SHIFT                 => 0.02             
  LINEQ_SOLVER                => CDGESV           
  LITERAL_CFOUR               => (empty)          
  MAT_NUM_COLUMN_PRINT        => 5                
  MAX_MOGRAD_CONVERGENCE      => 0.001            
  MOGRAD_DAMPING              => 1                
  MO_DIIS_NUM_VECS            => 6                
  MO_MAXITER                  => 50               
  MO_READ                     => FALSE            
  MO_STEP_MAX                 => 0.5              
  MO_WRITE                    => FALSE            
  MP2_OS_SCALE                => 1.2              
  MP2_SOS_SCALE               => 1.3              
  MP2_SOS_SCALE2              => 1.2              
  MP2_SS_SCALE                => 0.333333         
  MP2_TYPE                    => DF               
  NAT_ORBS                    => FALSE            
  NUM_FROZEN_DOCC             => 0                
  NUM_FROZEN_UOCC             => 0                
  OCC_ORBS_PRINT              => FALSE            
  OEPROP                      => FALSE            
  OPT_METHOD                  => ORB_RESP         
  ORB_OPT                     => FALSE           !
  ORB_RESP_SOLVER             => PCG              
  ORTH_TYPE                   => MGS              
  PCG_BETA_TYPE               => FLETCHER_REEVES  
  PCG_CONVERGENCE             => 1e-06            
  PCG_MAXITER                 => 30               
  PRINT                       => 1                
  PROPERTIES                  => [  ]             
  PROPERTIES_ORIGIN           => [  ]             
  PUREAM                      => TRUE             
  RELATIVISTIC                => NO               
  RELAXED                     => TRUE             
  RMS_MOGRAD_CONVERGENCE      => 1e-06            
  R_CONVERGENCE               => 1e-05            
  SCS_TYPE                    => SCS              
  SOCC                        => [  ]             
  SOS_TYPE                    => SOS              
  SYMMETRIZE                  => TRUE             
  TPDM_ABCD_TYPE              => DIRECT           
  UNITS                       => ANGSTROMS        
  WFN                         => SCF              
  WFN_TYPE                    => OMP2             
  WRITER_FILE_LABEL           => (empty)          


 ============================================================================== 
 ============================================================================== 
 ============================================================================== 

                       MP2   
              Program Written by Ugur Bozkaya,
              Latest Revision June 25, 2014.

 ============================================================================== 
 ============================================================================== 
 ============================================================================== 

	RMS orbital gradient is changed to :     1.00e-05
	MAX orbital gradient is changed to :     3.16e-04
	MO spaces per irreps... 

	IRREP   FC    OCC   VIR  FV 
	==============================
	   A     0     9     9    0
	==============================

	Memory is    256 MB 
	Cost of iabc is      0 MB 
	Cost of abcd is      0 MB 
	Switching to the incore algoritm for iabc..
	Switching to the incore algoritm for abcd..

	Computing MP2 energy using SCF MOs (Canonical MP2)... 
	============================================================================== 
	Nuclear Repulsion Energy (a.u.)    :    35.71946157982500
	SCF Energy (a.u.)                  :  -198.59150391629220
	REF Energy (a.u.)                  :  -198.59150391629220
	Alpha-Alpha Contribution (a.u.)    :    -0.03073718600287
	Alpha-Beta Contribution (a.u.)     :    -0.17772148671424
	Beta-Beta Contribution (a.u.)      :    -0.03073718600287
	Scaled_SS Correlation Energy (a.u.):    -0.02049145733524
	Scaled_OS Correlation Energy (a.u.):    -0.21326578405709
	SCS-MP2 Total Energy (a.u.)        :  -198.82526115768454
	SOS-MP2 Total Energy (a.u.)        :  -198.59150391629220
	SCSN-MP2 Total Energy (a.u.)       :  -198.69969881102230
	SCS-MP2-VDW Total Energy (a.u.)    :  -198.84972460528928
	SOS-PI-MP2 Total Energy (a.u.)     :  -198.84031399769214
	MP2 Correlation Energy (a.u.)      :    -0.23919585871997
	MP2 Total Energy (a.u.)            :  -198.83069977501216
	============================================================================== 

*** tstop() called on Kevins-MacBook-Pro.local at Thu Jan  8 00:09:25 2015
Module time:
	user time   =       0.08 seconds =       0.00 minutes
	system time =       0.02 seconds =       0.00 minutes
	total time  =          0 seconds =       0.00 minutes
Total time:
	user time   =       2.34 seconds =       0.04 minutes
	system time =       0.10 seconds =       0.00 minutes
	total time  =          2 seconds =       0.03 minutes

*** tstart() called on Kevins-MacBook-Pro.local
*** at Thu Jan  8 00:09:25 2015


         ---------------------------------------------------------
                                   SCF
            by Justin Turney, Rob Parrish, and Andy Simmonett
                              RHF Reference
                        1 Threads,    256 MiB Core
         ---------------------------------------------------------

  ==> Geometry <==

    Molecular point group: c1
    Full point group: D_inf_h

    Geometry (in Angstrom), charge = 0, multiplicity = 1:

       Center              X                  Y                   Z       
    ------------   -----------------  -----------------  -----------------
           F          0.000000000000     0.000000000000    -0.600000000000
           F          0.000000000000     0.000000000000     0.600000000000

  Running in c1 symmetry.

  Rotational constants: A = ************  B =      1.23239  C =      1.23239 [cm^-1]
  Rotational constants: A = ************  B =  36946.01470  C =  36946.01470 [MHz]
  Nuclear repulsion =   35.719461579825001

  Charge       = 0
  Multiplicity = 1
  Electrons    = 18
  Nalpha       = 9
  Nbeta        = 9

  ==> Algorithm <==

  SCF Algorithm Type is DF.
  DIIS enabled.
  MOM disabled.
  Fractional occupation disabled.
  Guess Type is CORE.
  Energy threshold   = 1.00e-08
  Density threshold  = 1.00e-08
  Integral threshold = 0.00e+00

  ==> Primary Basis <==

  Basis Set: 6-31G
    Number of shells: 10
    Number of basis function: 18
    Number of Cartesian functions: 18
    Spherical Harmonics?: false
    Max angular momentum: 1

  ==> Pre-Iterations <==

   -------------------------------------------------------
    Irrep   Nso     Nmo     Nalpha   Nbeta   Ndocc  Nsocc
   -------------------------------------------------------
     A         18      18       0       0       0       0
   -------------------------------------------------------
    Total      18      18       9       9       9       0
   -------------------------------------------------------

 OEINTS: Overlap, kinetic, potential, dipole, and quadrupole integrals
         stored in file 35.

  ==> Integral Setup <==

  ==> DFJK: Density-Fitted J/K Matrices <==

    J tasked:                  Yes
    K tasked:                  Yes
    wK tasked:                  No
    OpenMP threads:              1
    Integrals threads:           1
    Memory (MB):               183
    Algorithm:                Core
    Integral Cache:           NONE
    Schwarz Cutoff:          1E-12
    Fitting Condition:       1E-12

   => Auxiliary Basis Set <=

  Basis Set: 
    Number of shells: 48
    Number of basis function: 162
    Number of Cartesian functions: 162
    Spherical Harmonics?: false
    Max angular momentum: 3

  Minimum eigenvalue in the overlap matrix is 4.0681194403E-02.
  Using Symmetric Orthogonalization.
  SCF Guess: Core (One-Electron) Hamiltonian.

  ==> Iterations <==

                           Total Energy        Delta E     RMS |[F,P]|

   @DF-RHF iter   1:  -188.79990054301996   -1.88800e+02   2.07874e-01 
   @DF-RHF iter   2:  -196.96625765181730   -8.16636e+00   1.32699e-01 DIIS
   @DF-RHF iter   3:  -198.57900087412719   -1.61274e+00   1.01972e-02 DIIS
   @DF-RHF iter   4:  -198.59119827478617   -1.21974e-02   1.38850e-03 DIIS
   @DF-RHF iter   5:  -198.59149976063060   -3.01486e-04   1.54581e-04 DIIS
   @DF-RHF iter   6:  -198.59150388350443   -4.12287e-06   1.40559e-05 DIIS
   @DF-RHF iter   7:  -198.59150391621006   -3.27056e-08   8.15298e-07 DIIS
   @DF-RHF iter   8:  -198.59150391629194   -8.18829e-11   5.05747e-08 DIIS
   @DF-RHF iter   9:  -198.59150391629220   -2.55795e-13   5.14377e-09 DIIS

  ==> Post-Iterations <==

    Orbital Energies (a.u.)
    -----------------------

    Doubly Occupied:                                                      

       1A    -26.410971     2A    -26.410621     3A     -1.937795  
       4A     -1.430180     5A     -0.879183     6A     -0.879183  
       7A     -0.816690     8A     -0.622372     9A     -0.622372  

    Virtual:                                                              

      10A      0.299492    11A      1.377862    12A      1.377862  
      13A      1.399384    14A      1.517134    15A      1.541461  
      16A      1.541461    17A      1.797009    18A      2.172111  

    Final Occupation by Irrep:
              A 
    DOCC [     9 ]

  Energy converged.

  @DF-RHF Final Energy:  -198.59150391629220

   => Energetics <=

    Nuclear Repulsion Energy =             35.7194615798250013
    One-Electron Energy =                -348.6031974436837686
    Two-Electron Energy =                 114.2922319475665205
    DFT Exchange-Correlation Energy =       0.0000000000000000
    Empirical Dispersion Energy =           0.0000000000000000
    Total Energy =                       -198.5915039162922540



Properties will be evaluated at   0.000000,   0.000000,   0.000000 Bohr
  ==> Properties <==


Properties computed using the SCF density matrix

  Nuclear Dipole Moment: (a.u.)
     X:     0.0000      Y:     0.0000      Z:     0.0000

  Electronic Dipole Moment: (a.u.)
     X:     0.0000      Y:    -0.0000      Z:    -0.0000

  Dipole Moment: (a.u.)
     X:     0.0000      Y:    -0.0000      Z:    -0.0000     Total:     0.0000

  Dipole Moment: (Debye)
     X:     0.0000      Y:    -0.0000      Z:    -0.0000     Total:     0.0000


  Saving occupied orbitals to File 180.

*** tstop() called on Kevins-MacBook-Pro.local at Thu Jan  8 00:09:26 2015
Module time:
	user time   =       0.56 seconds =       0.01 minutes
	system time =       0.02 seconds =       0.00 minutes
	total time  =          1 seconds =       0.02 minutes
Total time:
	user time   =       2.92 seconds =       0.05 minutes
	system time =       0.12 seconds =       0.00 minutes
	total time  =          3 seconds =       0.05 minutes
Reading options from the DFMP2 block
Calling plugin dfmp2.so.

*** tstart() called on Kevins-MacBook-Pro.local
*** at Thu Jan  8 00:09:26 2015

  ==> DF-MP2 <==

   => Sizing <=

    Memory  =         244 MB
    Threads =           1
    no      =           9
    nv      =           9
    nn      =          18
    nQ      =         112

   => Molecule <=

    Molecular point group: c1
    Full point group: D_inf_h

    Geometry (in Angstrom), charge = 0, multiplicity = 1:

       Center              X                  Y                   Z       
    ------------   -----------------  -----------------  -----------------
           F          0.000000000000     0.000000000000    -0.600000000000
           F          0.000000000000     0.000000000000     0.600000000000

   => Primary Basis <=

  Basis Set: 6-31G
    Number of shells: 10
    Number of basis function: 18
    Number of Cartesian functions: 18
    Spherical Harmonics?: false
    Max angular momentum: 1

   => Auxiliary Basis <=

  Basis Set: CC-PVDZ-RI
    Number of shells: 36
    Number of basis function: 112
    Number of Cartesian functions: 132
    Spherical Harmonics?: true
    Max angular momentum: 3

  ==> DFERI: Density Fitted 3-Index Tensors <==

    Schwarz cutoff =   0.000E+00
    J cutoff       =   1.000E-12
    Mem (GB)       =           0

   => Auxiliary Basis <=

  Basis Set: CC-PVDZ-RI
    Number of shells: 36
    Number of basis function: 112
    Number of Cartesian functions: 132
    Spherical Harmonics?: true
    Max angular momentum: 3

  => DiskTensor B <=

    File    = /scratch/kevinhannon//psi.50257..1.B.dat
    Save    =          No
    Order   =           3
    Numel   =       36288

    Dimensions:

     N        Name  Alloc Size Active Size
     1  ACTIVE_ALL          18          18
     2  ACTIVE_ALL          18          18
     3        NAUX         112         112


 Generating CD Integrals
 Number of cholesky vectors 65 to satisfy       0.001000000000 tolerance
  ## C (Symmetry 0) ##
  Irrep: 1 Size: 18 x 18

                 1                   2                   3                   4                   5

    1     0.70393416434357     0.70394295345399     0.15984480179542     0.17426173732856    -0.00000000000000
    2     0.01493576065766     0.01538994116632    -0.35267572714171    -0.38922991418939     0.00000000000001
    3     0.00000000000000     0.00000000000000     0.00000000000000     0.00000000000000     0.00317690428441
    4     0.00000000000000     0.00000000000000    -0.00000000000000     0.00000000000000    -0.46311222026454
    5     0.00129244638651     0.00121447956924    -0.13040195544093     0.08342714215076    -0.00000000000002
    6    -0.00276037710504    -0.00610990135121    -0.29359298493163    -0.48515737218004     0.00000000000000
    7    -0.00000000000000    -0.00000000000000     0.00000000000000     0.00000000000000     0.00198700372048
    8     0.00000000000000    -0.00000000000000    -0.00000000000000    -0.00000000000000    -0.28965484077737
    9    -0.00065277093915    -0.00251321365216    -0.04714983578737    -0.00360752346228    -0.00000000000001
   10     0.70393416349861    -0.70394295429895     0.15984480179493    -0.17426173732886    -0.00000000000000
   11     0.01493576063918    -0.01538994118422    -0.35267572714158     0.38922991419014     0.00000000000001
   12     0.00000000000000     0.00000000000000     0.00000000000000     0.00000000000000     0.00317690428441
   13    -0.00000000000000     0.00000000000000     0.00000000000000    -0.00000000000000    -0.46311222026220
   14    -0.00129244638507     0.00121447957079     0.13040195544122     0.08342714214990     0.00000000000001
   15    -0.00276037709772     0.00610990135451    -0.29359298492698     0.48515737218012     0.00000000000001
   16     0.00000000000000     0.00000000000000     0.00000000000000     0.00000000000000     0.00198700372048
   17     0.00000000000000     0.00000000000000    -0.00000000000000     0.00000000000000    -0.28965484077605
   18     0.00065277093616    -0.00251321365294     0.04714983578432    -0.00360752346330     0.00000000000001

                 6                   7                   8                   9                  10

    1    -0.00000000000000     0.05007504158195     0.00000000000000    -0.00000000000000     0.07294710617102
    2     0.00000000000001    -0.11081998945526    -0.00000000000000     0.00000000000000    -0.17301697174850
    3     0.46311222026445     0.00000000000003     0.52059461701163     0.03738502112467    -0.00000000000001
    4     0.00317690428442    -0.00000000000001    -0.03738502112468     0.52059461701178     0.00000000000000
    5    -0.00000000000004     0.45577319232395    -0.00000000000000    -0.00000000000000    -0.50505581360481
    6     0.00000000000002    -0.21163665564675    -0.00000000000002     0.00000000000001    -0.61778135658514
    7     0.28965484077743     0.00000000000002     0.37001928752307     0.02657188228336    -0.00000000000001
    8     0.00198700372049    -0.00000000000001    -0.02657188228334     0.37001928752280     0.00000000000000
    9    -0.00000000000002     0.26825003473248    -0.00000000000001    -0.00000000000000    -0.78943250355835
   10    -0.00000000000000     0.05007504158223    -0.00000000000000    -0.00000000000000    -0.07294710617127
   11     0.00000000000001    -0.11081998945705    -0.00000000000000     0.00000000000000     0.17301697174938
   12     0.46311222026225     0.00000000000004    -0.52059461701332    -0.03738502112479     0.00000000000001
   13     0.00317690428440    -0.00000000000002     0.03738502112480    -0.52059461701345    -0.00000000000000
   14     0.00000000000003    -0.45577319232441    -0.00000000000001     0.00000000000001    -0.50505581360385
   15     0.00000000000001    -0.21163665564414     0.00000000000001    -0.00000000000000     0.61778135658513
   16     0.28965484077602     0.00000000000003    -0.37001928752443    -0.02657188228346     0.00000000000001
   17     0.00198700372048    -0.00000000000002     0.02657188228344    -0.37001928752427    -0.00000000000000
   18     0.00000000000002    -0.26825003473513    -0.00000000000002     0.00000000000000    -0.78943250355875

                11                  12                  13                  14                  15

    1    -0.00000000000001     0.00000000000000     0.04116990304547     0.07172762025488     0.00000000000001
    2     0.00000000000007    -0.00000000000004    -0.20776131266822    -0.78893549347402    -0.00000000000011
    3     0.67273498213355     0.00908889422828     0.00000000000012    -0.00000000000006     0.63935842396564
    4    -0.00908889422828     0.67273498213370     0.00000000000000    -0.00000000000001    -0.00018540076563
    5    -0.00000000000015     0.00000000000004     0.63426095995390     0.41584038519399     0.00000000000007
    6     0.00000000000010     0.00000000000002    -0.59188755548346     0.81108491039516     0.00000000000008
    7    -0.63380787734405    -0.00856297488791    -0.00000000000010     0.00000000000010    -0.98691534554851
    8     0.00856297488792    -0.63380787734439    -0.00000000000002    -0.00000000000000     0.00028618510967
    9     0.00000000000029    -0.00000000000006    -1.28072768434471    -0.49609059370563    -0.00000000000010
   10     0.00000000000001     0.00000000000000    -0.04116990304694     0.07172762025366     0.00000000000001
   11    -0.00000000000002    -0.00000000000003     0.20776131268204    -0.78893549346603    -0.00000000000009
   12     0.67273498212818     0.00908889422822     0.00000000000016     0.00000000000010    -0.63935842397150
   13    -0.00908889422821     0.67273498212800    -0.00000000000004    -0.00000000000005     0.00018540076564
   14    -0.00000000000012    -0.00000000000000     0.63426095996841    -0.41584038517917    -0.00000000000003
   15    -0.00000000000015     0.00000000000006     0.59188755546740     0.81108491040471     0.00000000000012
   16    -0.63380787733543    -0.00856297488780    -0.00000000000017    -0.00000000000014     0.98691534555395
   17     0.00856297488780    -0.63380787733511     0.00000000000006     0.00000000000006    -0.00028618510968
   18     0.00000000000026    -0.00000000000001    -1.28072768436151     0.49609059367672     0.00000000000002

                16                  17                  18

    1    -0.00000000000000     0.05108946295700     0.03291460602159
    2     0.00000000000002    -0.73730192835894    -1.22344491587748
    3     0.00018540076563    -0.00000000000000     0.00000000000000
    4     0.63935842396529    -0.00000000000000    -0.00000000000001
    5    -0.00000000000004    -0.56303328070642    -0.11247533574107
    6     0.00000000000002     0.44578479956442     2.63464796490249
    7    -0.00028618510967     0.00000000000000     0.00000000000000
    8    -0.98691534554841     0.00000000000000     0.00000000000001
    9     0.00000000000007     0.61064231396405     1.40924793575126
   10    -0.00000000000000     0.05108946295768    -0.03291460602107
   11     0.00000000000003    -0.73730192837197     1.22344491587195
   12    -0.00018540076564     0.00000000000000    -0.00000000000000
   13    -0.63935842397162     0.00000000000000     0.00000000000001
   14    -0.00000000000001     0.56303328070270    -0.11247533573535
   15    -0.00000000000007     0.44578479958368    -2.63464796490061
   16     0.00028618510968    -0.00000000000000    -0.00000000000000
   17     0.98691534555420    -0.00000000000000    -0.00000000000001
   18     0.00000000000004    -0.61064231396677     1.40924793574435



  ## pqrs (Symmetry 0) ##
  Irrep: 1 Size: 324 x 324

                 1                   2                   3                   4                   5

    1     2.89826356816851     0.00000000294929     0.25503931477106     0.00000000049764    -0.00000000000000
    2     0.00000000294929     2.45711281258567     0.00000000015542     0.27584100396757     0.00000000000000
    3     0.25503931477106     0.00000000015542     0.04144394463594     0.00000000005040    -0.00000000000000
    4     0.00000000049764     0.27584100396757     0.00000000005040     0.04723885924394     0.00000000000000
    5    -0.00000000000000     0.00000000000000    -0.00000000000000     0.00000000000000     0.01914072950847
    6    -0.00000000000001    -0.00000000000000    -0.00000000000000    -0.00000000000000     0.00000000000000
    7     0.08327096532447     0.00000000004332     0.00655012584966     0.00000000002003    -0.00000000000000
    8     0.00000000000000     0.00000000000000     0.00000000000000     0.00000000000000     0.00000000000199
    9    -0.00000000000000    -0.00000000000000    -0.00000000000000    -0.00000000000000    -0.00000000002531
   10     0.00000000020701     0.11870850803770     0.00000000002853     0.01546664037619     0.00000000000000
   11    -0.00000000000001    -0.00000000000001    -0.00000000000000    -0.00000000000000     0.00047171280226
   12     0.00000000000001     0.00000000000000     0.00000000000000     0.00000000000000    -0.02315478359090
   13     0.00000000013063     0.07005805811068     0.00000000000636     0.01695475494257     0.00000000000000
   14     0.19263471146431     0.00000000011279     0.02552800171014     0.00000000004197     0.00000000000000
   15     0.00000000000002     0.00000000000000     0.00000000000000     0.00000000000000     0.00000000000018
   16    -0.00000000000001    -0.00000000000000    -0.00000000000000    -0.00000000000000    -0.00000000002564
   17     0.15262993765194     0.00000000009529     0.02997621082706     0.00000000002755     0.00000000000000
   18     0.00000000036190     0.20118745045808     0.00000000003887     0.03317264111464     0.00000000000000
   19     0.00000000294929     2.45711281258567     0.00000000015542     0.27584100396757     0.00000000000000
   20     2.89818422140426    -0.00000000294940     0.25502655398219    -0.00000000016457    -0.00000000000000
   21     0.00000000015747     0.25843881178816     0.00000000000006     0.04199578600559     0.00000000000000
   22     0.27788662908671    -0.00000000016581     0.04196173425876    -0.00000000000007    -0.00000000000000
   23     0.00000000000000    -0.00000000000000     0.00000000000000    -0.00000000000000    -0.00000000000005
   24    -0.00000000000000    -0.00000000000001    -0.00000000000000    -0.00000000000000    -0.00000000000000
   25     0.00000000003697     0.07268160050314     0.00000000000008     0.01666982273312    -0.00000000000000
   26     0.00000000000000     0.00000000000000     0.00000000000000     0.00000000000000     0.00166955629809
   27    -0.00000000000000    -0.00000000000000    -0.00000000000000    -0.00000000000000    -0.02121126500836
   28     0.10786767803622    -0.00000000007146     0.02386750614361    -0.00000000000014     0.00000000000000
   29    -0.00000000000002    -0.00000000000001    -0.00000000000000    -0.00000000000000    -0.00000000000000
   30     0.00000000000000     0.00000000000001     0.00000000000000     0.00000000000000     0.00000000000000
   31     0.08061287810633    -0.00000000004378     0.00536905344558    -0.00000000000028    -0.00000000000000
   32     0.00000000010891     0.18595260781315     0.00000000000022     0.03472882675879    -0.00000000000000
   33     0.00000000000000     0.00000000000002     0.00000000000000     0.00000000000000     0.00015393975015
   34    -0.00000000000000    -0.00000000000001     0.00000000000000    -0.00000000000000    -0.02153035037227
   35     0.00000000010020     0.16085136917564    -0.00000000000023     0.02321791719122     0.00000000000000
   36     0.19952159687451    -0.00000000012005     0.03225629512947     0.00000000000005    -0.00000000000000
   37     0.25503931477106     0.00000000015542     0.04144394463594     0.00000000005040    -0.00000000000000
   38     0.00000000015747     0.25843881178816     0.00000000000006     0.04199578600559     0.00000000000000
   39     0.89162391408021     0.00000000000094     0.00504528421165     0.00000000000928    -0.00000000000000
   40     0.00000000045551     0.37955901929804     0.00000000000702     0.01106654531932    -0.00000000000000
   41     0.00000000000000     0.00000000000000    -0.00000000000000    -0.00000000000000    -0.02059264295260
   42     0.00000000000000    -0.00000000000000    -0.00000000000000    -0.00000000000000    -0.00000000000000
   43    -0.05142298005991    -0.00000000000012     0.00716509019085    -0.00000000000165    -0.00000000000000
   44    -0.00000000000000     0.00000000000000     0.00000000000000     0.00000000000000    -0.00000000000088
   45     0.00000000000000    -0.00000000000000    -0.00000000000000    -0.00000000000000     0.00000000001119
   46     0.00000000026546     0.22119828756936     0.00000000000128     0.01054867926367     0.00000000000000
   47    -0.00000000000000     0.00000000000000    -0.00000000000000     0.00000000000000    -0.00022240312562
   48     0.00000000000001    -0.00000000000000     0.00000000000000    -0.00000000000000     0.01091701607216
   49    -0.00000000000787    -0.00571583159882     0.00000000000227    -0.00127553940389    -0.00000000000000
   50     0.14686914090305     0.00000000000060     0.00751549615362     0.00000000000357    -0.00000000000000
   51     0.00000000000002     0.00000000000000     0.00000000000000    -0.00000000000000    -0.00000000000004
   52    -0.00000000000000     0.00000000000000    -0.00000000000000     0.00000000000000     0.00000000000612
   53     0.21095491139632    -0.00000000000083     0.00541320245870     0.00000000000662    -0.00000000000000
   54     0.00000000022904     0.18979744374269     0.00000000000449     0.01004631287327    -0.00000000000000
   55     0.00000000049764     0.27584100396757     0.00000000005040     0.04723885924394     0.00000000000000
   56     0.27788662908671    -0.00000000016581     0.04196173425876    -0.00000000000007    -0.00000000000000
   57     0.00000000045551     0.37955901929804     0.00000000000702     0.01106654531932    -0.00000000000000
   58     0.85694143804070    -0.00000000000048     0.01389851851981     0.00000000000740     0.00000000000000
   59     0.00000000000000    -0.00000000000001    -0.00000000000000    -0.00000000000000    -0.00000000001161
   60     0.00000000000000    -0.00000000000002    -0.00000000000000    -0.00000000000000     0.00000000000000
   61     0.00000000030219     0.25180914421308     0.00000000000685     0.00111144155666     0.00000000000000
   62     0.00000000000000     0.00000000000000    -0.00000000000000    -0.00000000000000    -0.00177125305267
   63     0.00000000000000    -0.00000000000000     0.00000000000000     0.00000000000000     0.02250329500123
   64     0.10263318154582    -0.00000000000096    -0.00246638395247     0.00000000000453    -0.00000000000000
   65    -0.00000000000003    -0.00000000000001    -0.00000000000000    -0.00000000000000    -0.00000000000016
   66     0.00000000000000     0.00000000000001     0.00000000000000     0.00000000000000     0.00000000000783
   67     0.14909698213835    -0.00000000000231     0.00899179199357     0.00000000000166     0.00000000000000
   68     0.00000000027993     0.23138087718062     0.00000000000763     0.00839550123320     0.00000000000000
   69     0.00000000000000     0.00000000000003     0.00000000000000     0.00000000000000    -0.00007528691705
   70    -0.00000000000000    -0.00000000000001    -0.00000000000000    -0.00000000000000     0.01052979299265
   71     0.00000000014874     0.12557977664430     0.00000000000230     0.00727453256635    -0.00000000000000
   72     0.21160627917260     0.00000000000043     0.00882708971874     0.00000000000558    -0.00000000000000
   73    -0.00000000000000     0.00000000000000    -0.00000000000000     0.00000000000000     0.01914072950847
   74     0.00000000000000    -0.00000000000000     0.00000000000000    -0.00000000000000    -0.00000000000005
   75     0.00000000000000     0.00000000000000    -0.00000000000000    -0.00000000000000    -0.02059264295260
   76     0.00000000000000    -0.00000000000001    -0.00000000000000    -0.00000000000000    -0.00000000001161
   77     0.82180193462103     0.00000000000186     0.00582655608914     0.00000000000537     0.00000000000000
   78     0.00000000000000    -0.00000000000001     0.00000000000000    -0.00000000000000     0.00000000000000
   79    -0.00000000000000    -0.00000000000001    -0.00000000000000    -0.00000000000000    -0.00527543731680
   80     0.00000000004054     0.03376329770940     0.00000000000046     0.00061548570809    -0.00000000000000
   81    -0.00000000051507    -0.42895364240884    -0.00000000000589    -0.00781958085396     0.00000000000000
   82     0.00000000000000     0.00000000000001    -0.00000000000000     0.00000000000000    -0.00000000000444
   83     0.00616650394438     0.00000000000003     0.00018047185640     0.00000000000012     0.00000000000000
   84    -0.30269279031446    -0.00000000000170    -0.00885875210308    -0.00000000000573    -0.00000000000000
   85     0.00000000000001    -0.00000000000002     0.00000000000000    -0.00000000000000    -0.00000000000228
   86     0.00000000000001    -0.00000000000001     0.00000000000000    -0.00000000000000    -0.00851276934408
   87     0.00000000000202     0.00168952526368     0.00000000000004     0.00006296065455    -0.00000000000000
   88    -0.00000000028287    -0.23630070111353    -0.00000000000492    -0.00880581494194     0.00000000000000
   89     0.00000000000001     0.00000000000000     0.00000000000000     0.00000000000000    -0.00528531340398
   90    -0.00000000000000     0.00000000000000    -0.00000000000000     0.00000000000000    -0.00000000000442
   91    -0.00000000000001    -0.00000000000000    -0.00000000000000    -0.00000000000000     0.00000000000000
   92    -0.00000000000000    -0.00000000000001    -0.00000000000000    -0.00000000000000    -0.00000000000000
   93     0.00000000000000    -0.00000000000000    -0.00000000000000    -0.00000000000000    -0.00000000000000
   94     0.00000000000000    -0.00000000000002    -0.00000000000000    -0.00000000000000     0.00000000000000
   95     0.00000000000000    -0.00000000000001     0.00000000000000    -0.00000000000000     0.00000000000000
   96     0.82180193462102     0.00000000000178     0.00582655608914     0.00000000000537    -0.00000000000000
   97    -0.00000000000000    -0.00000000000001    -0.00000000000000    -0.00000000000000    -0.00000000000000
   98     0.00000000051504     0.42895364240878     0.00000000000589     0.00781958085396    -0.00000000000000
   99     0.00000000004054     0.03376329770940     0.00000000000046     0.00061548570809    -0.00000000000000
  100     0.00000000000000     0.00000000000002     0.00000000000000     0.00000000000000     0.00000000000000
  101     0.30269279031446     0.00000000000161     0.00885875210308     0.00000000000573    -0.00000000000000
  102     0.00616650394438     0.00000000000003     0.00018047185640     0.00000000000012    -0.00000000000000
  103     0.00000000000006    -0.00000000000003     0.00000000000000    -0.00000000000000     0.00000000000000
  104    -0.00000000000001    -0.00000000000003    -0.00000000000000    -0.00000000000000    -0.00000000000000
  105     0.00000000028296     0.23630070111361     0.00000000000492     0.00880581494195     0.00000000000000
  106     0.00000000000202     0.00168952526368     0.00000000000004     0.00006296065455    -0.00000000000000
  107     0.00000000000001    -0.00000000000000     0.00000000000000    -0.00000000000000    -0.00000000000000
  108    -0.00000000000000    -0.00000000000000    -0.00000000000000     0.00000000000000     0.00000000000000
  109     0.08327096532447     0.00000000004332     0.00655012584966     0.00000000002003    -0.00000000000000
  110     0.00000000003697     0.07268160050314     0.00000000000008     0.01666982273312    -0.00000000000000
  111    -0.05142298005991    -0.00000000000012     0.00716509019085    -0.00000000000165    -0.00000000000000
  112     0.00000000030219     0.25180914421308     0.00000000000685     0.00111144155666     0.00000000000000
  113    -0.00000000000000    -0.00000000000001    -0.00000000000000    -0.00000000000000    -0.00527543731680
  114    -0.00000000000000    -0.00000000000001    -0.00000000000000    -0.00000000000000    -0.00000000000000
  115     0.83919794570642    -0.00000000000085     0.01017810702904     0.00000000000455    -0.00000000000000
  116    -0.00000000000000     0.00000000000003    -0.00000000000000     0.00000000000000    -0.00000000000032
  117    -0.00000000000000    -0.00000000000001    -0.00000000000000    -0.00000000000000     0.00000000000412
  118    -0.00000000042478    -0.35364004933264    -0.00000000000483    -0.00588492735184     0.00000000000000
  119     0.00000000000002    -0.00000000000007     0.00000000000000    -0.00000000000000    -0.00008681233546
  120     0.00000000000000     0.00000000000001     0.00000000000000     0.00000000000000     0.00426132348122
  121     0.00000000034403     0.28999081888996     0.00000000000676     0.00866092230190    -0.00000000000000
  122     0.25431899154815     0.00000000000315     0.01060741823329     0.00000000000398    -0.00000000000000
  123     0.00000000000003     0.00000000000003     0.00000000000000     0.00000000000000    -0.00000000000001
  124    -0.00000000000000    -0.00000000000002    -0.00000000000000    -0.00000000000000     0.00000000000117
  125    -0.16339411115591    -0.00000000000133    -0.00302866873094    -0.00000000000385     0.00000000000000
  126     0.00000000003402     0.02923901508873     0.00000000000281    -0.00079938772873     0.00000000000000
  127     0.00000000000000     0.00000000000000     0.00000000000000     0.00000000000000     0.00000000000199
  128     0.00000000000000     0.00000000000000     0.00000000000000     0.00000000000000     0.00166955629809
  129    -0.00000000000000     0.00000000000000     0.00000000000000     0.00000000000000    -0.00000000000088
  130     0.00000000000000     0.00000000000000    -0.00000000000000    -0.00000000000000    -0.00177125305267
  131     0.00000000004054     0.03376329770940     0.00000000000046     0.00061548570809    -0.00000000000000
  132     0.00000000051504     0.42895364240878     0.00000000000589     0.00781958085396    -0.00000000000000
  133    -0.00000000000000     0.00000000000003    -0.00000000000000     0.00000000000000    -0.00000000000032
  134     0.86700434486971    -0.00000000000166     0.00832434348086     0.00000000000613    -0.00000000000000
  135    -0.00000000000001    -0.00000000000000    -0.00000000000000    -0.00000000000000     0.00000000000000
  136     0.00000000000000    -0.00000000000000    -0.00000000000000    -0.00000000000000    -0.00065348479101
  137     0.00000000037475     0.31162142722507     0.00000000000634     0.01011128903574     0.00000000000000
  138    -0.00000000002184    -0.01815047757304    -0.00000000000037    -0.00058893487047     0.00000000000000
  139    -0.00000000000001     0.00000000000007    -0.00000000000000     0.00000000000000    -0.00034536280925
  140    -0.00000000000004     0.00000000000001    -0.00000000000000     0.00000000000000    -0.00000000000047
  141     0.30974002013956    -0.00000000000180     0.00844054617802     0.00000000000603    -0.00000000000000
  142    -0.02215281868107     0.00000000000013    -0.00060367365175    -0.00000000000043     0.00000000000000
  143    -0.00000000000000     0.00000000000000    -0.00000000000000     0.00000000000000    -0.00000000000036
  144     0.00000000000000    -0.00000000000000     0.00000000000000    -0.00000000000000    -0.00058712422212
  145    -0.00000000000000    -0.00000000000000    -0.00000000000000    -0.00000000000000    -0.00000000002531
  146    -0.00000000000000    -0.00000000000000    -0.00000000000000    -0.00000000000000    -0.02121126500836
  147     0.00000000000000    -0.00000000000000    -0.00000000000000    -0.00000000000000     0.00000000001119
  148     0.00000000000000    -0.00000000000000     0.00000000000000     0.00000000000000     0.02250329500123
  149    -0.00000000051507    -0.42895364240884    -0.00000000000589    -0.00781958085396     0.00000000000000
  150     0.00000000004054     0.03376329770940     0.00000000000046     0.00061548570809    -0.00000000000000
  151    -0.00000000000000    -0.00000000000001    -0.00000000000000    -0.00000000000000     0.00000000000412
  152    -0.00000000000001    -0.00000000000000    -0.00000000000000    -0.00000000000000     0.00000000000000
  153     0.86700434486984    -0.00000000000168     0.00832434348087     0.00000000000613    -0.00000000000000
  154    -0.00000000000000     0.00000000000001    -0.00000000000000     0.00000000000000     0.00830234901144
  155     0.00000000002183     0.01815047757304     0.00000000000037     0.00058893487047    -0.00000000000000
  156     0.00000000037483     0.31162142722514     0.00000000000634     0.01011128903574     0.00000000000000
  157     0.00000000000001    -0.00000000000001     0.00000000000000    -0.00000000000000     0.00438774186856
  158     0.00000000000000    -0.00000000000001     0.00000000000000    -0.00000000000000     0.00000000000599
  159     0.02215281868107    -0.00000000000013     0.00060367365175     0.00000000000043     0.00000000000000
  160     0.30974002013952    -0.00000000000192     0.00844054617802     0.00000000000603    -0.00000000000000
  161     0.00000000000000    -0.00000000000000     0.00000000000000    -0.00000000000000     0.00000000000459
  162    -0.00000000000000    -0.00000000000000    -0.00000000000000     0.00000000000000     0.00745925578099
  163     0.00000000020701     0.11870850803770     0.00000000002853     0.01546664037619     0.00000000000000
  164     0.10786767803622    -0.00000000007146     0.02386750614361    -0.00000000000014     0.00000000000000
  165     0.00000000026546     0.22119828756936     0.00000000000128     0.01054867926367     0.00000000000000
  166     0.10263318154582    -0.00000000000096    -0.00246638395247     0.00000000000453    -0.00000000000000
  167     0.00000000000000     0.00000000000001    -0.00000000000000     0.00000000000000    -0.00000000000444
  168     0.00000000000000     0.00000000000002     0.00000000000000     0.00000000000000     0.00000000000000
  169    -0.00000000042478    -0.35364004933264    -0.00000000000483    -0.00588492735184     0.00000000000000
  170     0.00000000000000    -0.00000000000000    -0.00000000000000    -0.00000000000000    -0.00065348479101
  171    -0.00000000000000     0.00000000000001    -0.00000000000000     0.00000000000000     0.00830234901144
  172     0.88588428407793     0.00000000000033     0.00607199427797     0.00000000000850    -0.00000000000000
  173     0.00000000000006    -0.00000000000000     0.00000000000000    -0.00000000000000    -0.00000000000007
  174    -0.00000000000001    -0.00000000000000    -0.00000000000000    -0.00000000000000     0.00000000000330
  175    -0.30475990344971     0.00000000000143    -0.00605410038979    -0.00000000000541     0.00000000000000
  176    -0.00000000008087    -0.06431890505873    -0.00000000000240    -0.00134350903262     0.00000000000000
  177    -0.00000000000001    -0.00000000000001    -0.00000000000000    -0.00000000000000    -0.00004643971201
  178     0.00000000000001     0.00000000000000     0.00000000000000     0.00000000000000     0.00649515976126
  179     0.00000000031921     0.26553253856056     0.00000000000444     0.01304209740917    -0.00000000000000
  180     0.14215774857922     0.00000000000106     0.00071376870813     0.00000000000499    -0.00000000000000
  181    -0.00000000000001    -0.00000000000001    -0.00000000000000    -0.00000000000000     0.00047171280226
  182    -0.00000000000002    -0.00000000000001    -0.00000000000000    -0.00000000000000    -0.00000000000000
  183    -0.00000000000000     0.00000000000000    -0.00000000000000     0.00000000000000    -0.00022240312562
  184    -0.00000000000003    -0.00000000000001    -0.00000000000000    -0.00000000000000    -0.00000000000016
  185     0.00616650394438     0.00000000000003     0.00018047185640     0.00000000000012     0.00000000000000
  186     0.30269279031446     0.00000000000161     0.00885875210308     0.00000000000573    -0.00000000000000
  187     0.00000000000002    -0.00000000000007     0.00000000000000    -0.00000000000000    -0.00008681233546
  188     0.00000000037475     0.31162142722507     0.00000000000634     0.01011128903574     0.00000000000000
  189     0.00000000002183     0.01815047757304     0.00000000000037     0.00058893487047    -0.00000000000000
  190     0.00000000000006    -0.00000000000000     0.00000000000000    -0.00000000000000    -0.00000000000007
  191     0.75559650333765     0.00000000000290     0.00972645109734     0.00000000000731    -0.00000000000000
  192     0.00000000000000    -0.00000000000000     0.00000000000000    -0.00000000000000    -0.00000000000000
  193     0.00000000000001    -0.00000000000002    -0.00000000000000    -0.00000000000000    -0.00000000000006
  194     0.00000000000000    -0.00000000000011    -0.00000000000000    -0.00000000000000    -0.00025234635962
  195     0.00000000041619     0.34703789741985     0.00000000000669     0.00992493058185    -0.00000000000000
  196    -0.00000000000550    -0.00458795637185    -0.00000000000009    -0.00013121088170    -0.00000000000000
  197    -0.00000000000000     0.00000000000004    -0.00000000000000     0.00000000000000    -0.00023511891565
  198    -0.00000000000000    -0.00000000000000    -0.00000000000000    -0.00000000000000    -0.00000000000014
  199     0.00000000000001     0.00000000000000     0.00000000000000     0.00000000000000    -0.02315478359090
  200     0.00000000000000     0.00000000000001     0.00000000000000     0.00000000000000     0.00000000000000
  201     0.00000000000001    -0.00000000000000     0.00000000000000    -0.00000000000000     0.01091701607216
  202     0.00000000000000     0.00000000000001     0.00000000000000     0.00000000000000     0.00000000000783
  203    -0.30269279031446    -0.00000000000170    -0.00885875210308    -0.00000000000573    -0.00000000000000
  204     0.00616650394438     0.00000000000003     0.00018047185640     0.00000000000012    -0.00000000000000
  205     0.00000000000000     0.00000000000001     0.00000000000000     0.00000000000000     0.00426132348122
  206    -0.00000000002184    -0.01815047757304    -0.00000000000037    -0.00058893487047     0.00000000000000
  207     0.00000000037483     0.31162142722514     0.00000000000634     0.01011128903574     0.00000000000000
  208    -0.00000000000001    -0.00000000000000    -0.00000000000000    -0.00000000000000     0.00000000000330
  209     0.00000000000000    -0.00000000000000     0.00000000000000    -0.00000000000000    -0.00000000000000
  210     0.75559650333764     0.00000000000308     0.00972645109734     0.00000000000732     0.00000000000000
  211    -0.00000000000000     0.00000000000003     0.00000000000000     0.00000000000000     0.00000000000286
  212    -0.00000000000000     0.00000000000002     0.00000000000000     0.00000000000000     0.01238682799982
  213     0.00000000000550     0.00458795637185     0.00000000000009     0.00013121088170     0.00000000000000
  214     0.00000000041613     0.34703789741978     0.00000000000669     0.00992493058185    -0.00000000000000
  215     0.00000000000000    -0.00000000000001    -0.00000000000000    -0.00000000000000     0.01154119113106
  216     0.00000000000000     0.00000000000000     0.00000000000000     0.00000000000000     0.00000000000708
  217     0.00000000013063     0.07005805811068     0.00000000000636     0.01695475494257     0.00000000000000
  218     0.08061287810633    -0.00000000004378     0.00536905344558    -0.00000000000028    -0.00000000000000
  219    -0.00000000000787    -0.00571583159882     0.00000000000227    -0.00127553940389    -0.00000000000000
  220     0.14909698213835    -0.00000000000231     0.00899179199357     0.00000000000166     0.00000000000000
  221     0.00000000000001    -0.00000000000002     0.00000000000000    -0.00000000000000    -0.00000000000228
  222     0.00000000000006    -0.00000000000003     0.00000000000000    -0.00000000000000     0.00000000000000
  223     0.00000000034403     0.28999081888996     0.00000000000676     0.00866092230190    -0.00000000000000
  224    -0.00000000000001     0.00000000000007    -0.00000000000000     0.00000000000000    -0.00034536280925
  225     0.00000000000001    -0.00000000000001     0.00000000000000    -0.00000000000000     0.00438774186856
  226    -0.30475990344971     0.00000000000143    -0.00605410038979    -0.00000000000541     0.00000000000000
  227     0.00000000000001    -0.00000000000002    -0.00000000000000    -0.00000000000000    -0.00000000000006
  228    -0.00000000000000     0.00000000000003     0.00000000000000     0.00000000000000     0.00000000000286
  229     0.71951533923799    -0.00000000000964     0.01273650972001     0.00000000000587     0.00000000000000
  230     0.00000000039598     0.32957686265379     0.00000000000819     0.00608066445717    -0.00000000000000
  231     0.00000000000000     0.00000000000011     0.00000000000000     0.00000000000000    -0.00003351131475
  232    -0.00000000000000    -0.00000000000002    -0.00000000000000    -0.00000000000000     0.00468696582463
  233    -0.00000000023793    -0.19826368195062    -0.00000000000325    -0.00689910176918    -0.00000000000000
  234     0.01987804450424    -0.00000000000257     0.00437316389947    -0.00000000000066     0.00000000000000
  235     0.19263471146431     0.00000000011279     0.02552800171014     0.00000000004197     0.00000000000000
  236     0.00000000010891     0.18595260781315     0.00000000000022     0.03472882675879    -0.00000000000000
  237     0.14686914090305     0.00000000000060     0.00751549615362     0.00000000000357    -0.00000000000000
  238     0.00000000027993     0.23138087718062     0.00000000000763     0.00839550123320     0.00000000000000
  239     0.00000000000001    -0.00000000000001     0.00000000000000    -0.00000000000000    -0.00851276934408
  240    -0.00000000000001    -0.00000000000003    -0.00000000000000    -0.00000000000000    -0.00000000000000
  241     0.25431899154815     0.00000000000315     0.01060741823329     0.00000000000398    -0.00000000000000
  242    -0.00000000000004     0.00000000000001    -0.00000000000000     0.00000000000000    -0.00000000000047
  243     0.00000000000000    -0.00000000000001     0.00000000000000    -0.00000000000000     0.00000000000599
  244    -0.00000000008087    -0.06431890505873    -0.00000000000240    -0.00134350903262     0.00000000000000
  245     0.00000000000000    -0.00000000000011    -0.00000000000000    -0.00000000000000    -0.00025234635962
  246    -0.00000000000000     0.00000000000002     0.00000000000000     0.00000000000000     0.01238682799982
  247     0.00000000039598     0.32957686265379     0.00000000000819     0.00608066445717    -0.00000000000000
  248     0.67668637096386     0.00000000000846     0.01353404581691     0.00000000000521    -0.00000000000000
  249    -0.00000000000000     0.00000000000002     0.00000000000000     0.00000000000000    -0.00000000000004
  250     0.00000000000000    -0.00000000000003    -0.00000000000000    -0.00000000000000     0.00000000000631
  251     0.00422903048497    -0.00000000000418    -0.00128165195940     0.00000000000023    -0.00000000000000
  252     0.00000000021479     0.17848838334811     0.00000000000464     0.00442569288523     0.00000000000000
  253     0.00000000000002     0.00000000000000     0.00000000000000     0.00000000000000     0.00000000000018
  254     0.00000000000000     0.00000000000002     0.00000000000000     0.00000000000000     0.00015393975015
  255     0.00000000000002     0.00000000000000     0.00000000000000    -0.00000000000000    -0.00000000000004
  256     0.00000000000000     0.00000000000003     0.00000000000000     0.00000000000000    -0.00007528691705
  257     0.00000000000202     0.00168952526368     0.00000000000004     0.00006296065455    -0.00000000000000
  258     0.00000000028296     0.23630070111361     0.00000000000492     0.00880581494195     0.00000000000000
  259     0.00000000000003     0.00000000000003     0.00000000000000     0.00000000000000    -0.00000000000001
  260     0.30974002013956    -0.00000000000180     0.00844054617802     0.00000000000603    -0.00000000000000
  261     0.02215281868107    -0.00000000000013     0.00060367365175     0.00000000000043     0.00000000000000
  262    -0.00000000000001    -0.00000000000001    -0.00000000000000    -0.00000000000000    -0.00004643971201
  263     0.00000000041619     0.34703789741985     0.00000000000669     0.00992493058185    -0.00000000000000
  264     0.00000000000550     0.00458795637185     0.00000000000009     0.00013121088170     0.00000000000000
  265     0.00000000000000     0.00000000000011     0.00000000000000     0.00000000000000    -0.00003351131475
  266    -0.00000000000000     0.00000000000002     0.00000000000000     0.00000000000000    -0.00000000000004
  267     0.68362641024290    -0.00000000000302     0.00863607858454     0.00000000000607    -0.00000000000000
  268     0.00000000000000     0.00000000000000     0.00000000000000     0.00000000000000     0.00000000000000
  269     0.00000000000000    -0.00000000000001    -0.00000000000000    -0.00000000000000    -0.00000000000003
  270     0.00000000000000     0.00000000000002     0.00000000000000     0.00000000000000    -0.00009211822253
  271    -0.00000000000001    -0.00000000000000    -0.00000000000000    -0.00000000000000    -0.00000000002564
  272    -0.00000000000000    -0.00000000000001     0.00000000000000    -0.00000000000000    -0.02153035037227
  273    -0.00000000000000     0.00000000000000    -0.00000000000000     0.00000000000000     0.00000000000612
  274    -0.00000000000000    -0.00000000000001    -0.00000000000000    -0.00000000000000     0.01052979299265
  275    -0.00000000028287    -0.23630070111353    -0.00000000000492    -0.00880581494194     0.00000000000000
  276     0.00000000000202     0.00168952526368     0.00000000000004     0.00006296065455    -0.00000000000000
  277    -0.00000000000000    -0.00000000000002    -0.00000000000000    -0.00000000000000     0.00000000000117
  278    -0.02215281868107     0.00000000000013    -0.00060367365175    -0.00000000000043     0.00000000000000
  279     0.30974002013952    -0.00000000000192     0.00844054617802     0.00000000000603    -0.00000000000000
  280     0.00000000000001     0.00000000000000     0.00000000000000     0.00000000000000     0.00649515976126
  281    -0.00000000000550    -0.00458795637185    -0.00000000000009    -0.00013121088170    -0.00000000000000
  282     0.00000000041613     0.34703789741978     0.00000000000669     0.00992493058185    -0.00000000000000
  283    -0.00000000000000    -0.00000000000002    -0.00000000000000    -0.00000000000000     0.00468696582463
  284     0.00000000000000    -0.00000000000003    -0.00000000000000    -0.00000000000000     0.00000000000631
  285     0.00000000000000     0.00000000000000     0.00000000000000     0.00000000000000     0.00000000000000
  286     0.68362641024277    -0.00000000000327     0.00863607858454     0.00000000000606    -0.00000000000000
  287    -0.00000000000000     0.00000000000001     0.00000000000000     0.00000000000000     0.00000000000458
  288    -0.00000000000000    -0.00000000000000    -0.00000000000000    -0.00000000000000     0.01288385621531
  289     0.15262993765194     0.00000000009529     0.02997621082706     0.00000000002755     0.00000000000000
  290     0.00000000010020     0.16085136917564    -0.00000000000023     0.02321791719122     0.00000000000000
  291     0.21095491139632    -0.00000000000083     0.00541320245870     0.00000000000662    -0.00000000000000
  292     0.00000000014874     0.12557977664430     0.00000000000230     0.00727453256635    -0.00000000000000
  293     0.00000000000001     0.00000000000000     0.00000000000000     0.00000000000000    -0.00528531340398
  294     0.00000000000001    -0.00000000000000     0.00000000000000    -0.00000000000000    -0.00000000000000
  295    -0.16339411115591    -0.00000000000133    -0.00302866873094    -0.00000000000385     0.00000000000000
  296    -0.00000000000000     0.00000000000000    -0.00000000000000     0.00000000000000    -0.00000000000036
  297     0.00000000000000    -0.00000000000000     0.00000000000000    -0.00000000000000     0.00000000000459
  298     0.00000000031921     0.26553253856056     0.00000000000444     0.01304209740917    -0.00000000000000
  299    -0.00000000000000     0.00000000000004    -0.00000000000000     0.00000000000000    -0.00023511891565
  300     0.00000000000000    -0.00000000000001    -0.00000000000000    -0.00000000000000     0.01154119113106
  301    -0.00000000023793    -0.19826368195062    -0.00000000000325    -0.00689910176918    -0.00000000000000
  302     0.00422903048497    -0.00000000000418    -0.00128165195940     0.00000000000023    -0.00000000000000
  303     0.00000000000000    -0.00000000000001    -0.00000000000000    -0.00000000000000    -0.00000000000003
  304    -0.00000000000000     0.00000000000001     0.00000000000000     0.00000000000000     0.00000000000458
  305     0.77469623295548    -0.00000000000048     0.00527488786243     0.00000000000895    -0.00000000000000
  306     0.00000000024573     0.20435379497937     0.00000000000271     0.00825318619242    -0.00000000000000
  307     0.00000000036190     0.20118745045808     0.00000000003887     0.03317264111464     0.00000000000000
  308     0.19952159687451    -0.00000000012005     0.03225629512947     0.00000000000005    -0.00000000000000
  309     0.00000000022904     0.18979744374269     0.00000000000449     0.01004631287327    -0.00000000000000
  310     0.21160627917260     0.00000000000043     0.00882708971874     0.00000000000558    -0.00000000000000
  311    -0.00000000000000     0.00000000000000    -0.00000000000000     0.00000000000000    -0.00000000000442
  312    -0.00000000000000    -0.00000000000000    -0.00000000000000     0.00000000000000     0.00000000000000
[...]
  115     0.00000000000000    -0.00000000000000    -0.00000000000007     0.51148882362245
  116    -0.00000000000016     0.00000000000001     0.00000000000001    -0.00000000000000
  117    -0.00000000000001    -0.00000000000017    -0.00000000000000     0.00000000000000
  118    -0.00000000000001     0.00000000000000    -0.08391885400776    -0.00000000000077
  119     0.00360340154366    -0.00004763816631    -0.00000000000001     0.00000000000000
  120     0.00004763816631     0.00360340154366     0.00000000000000     0.00000000000000
  121     0.00000000000001    -0.00000000000000     0.04206499242761    -0.00000000000069
  122     0.00000000000000    -0.00000000000000     0.00000000000043     0.06512930493231
  123    -0.00000000000002     0.00000000000000     0.00000000000000     0.00000000000001
  124    -0.00000000000000    -0.00000000000002    -0.00000000000000    -0.00000000000000
  125    -0.00000000000000     0.00000000000000    -0.00000000000024    -0.03958296855656
  126     0.00000000000000    -0.00000000000000    -0.00806763034681    -0.00000000000034
  127    -0.00000000000846     0.00000000000060    -0.00000000000000    -0.00000000000000
  128    -0.01416730421615     0.00101325531444     0.00000000000000    -0.00000000000000
  129    -0.00000000000013     0.00000000000001     0.00000000000000    -0.00000000000000
  130     0.06282185850045    -0.00449306240744     0.00000000000000     0.00000000000000
  131     0.00000000000000    -0.00000000000000     0.00845363439194     0.00000000000007
  132     0.00000000000001    -0.00000000000000     0.10740115776676     0.00000000000086
  133    -0.00000000000016     0.00000000000001     0.00000000000001    -0.00000000000000
  134     0.00000000000000    -0.00000000000000    -0.00000000000031     0.53293767043579
  135    -0.00000000000000     0.00000000000000    -0.00000000000000    -0.00000000000000
  136     0.01852081763582    -0.00132462158015    -0.00000000000000     0.00000000000000
  137     0.00000000000001    -0.00000000000000     0.04779219662599     0.00000000000058
  138    -0.00000000000000     0.00000000000000    -0.00278366991882    -0.00000000000004
  139     0.00004150118450    -0.00000296819318     0.00000000000001    -0.00000000000000
  140     0.00000000000003    -0.00000000000000     0.00000000000000    -0.00000000000001
  141     0.00000000000000    -0.00000000000000    -0.00000000000013     0.07192037611558
  142    -0.00000000000000     0.00000000000000     0.00000000000001    -0.00514379462765
  143     0.00000000000009    -0.00000000000001     0.00000000000000    -0.00000000000000
  144    -0.01217295350282     0.00087061798356    -0.00000000000000     0.00000000000000
  145    -0.00000000000060    -0.00000000000845     0.00000000000000    -0.00000000000000
  146    -0.00101325531444    -0.01416730421615    -0.00000000000000     0.00000000000000
  147    -0.00000000000001    -0.00000000000015    -0.00000000000000     0.00000000000000
  148     0.00449306240744     0.06282185850045    -0.00000000000000    -0.00000000000000
  149    -0.00000000000001     0.00000000000000    -0.10740115776677    -0.00000000000086
  150     0.00000000000000    -0.00000000000000     0.00845363439194     0.00000000000007
  151    -0.00000000000001    -0.00000000000017    -0.00000000000000     0.00000000000000
  152    -0.00000000000000     0.00000000000000    -0.00000000000000    -0.00000000000000
  153     0.00000000000000    -0.00000000000000    -0.00000000000032     0.53293767043582
  154     0.00132462158014     0.01852081763582     0.00000000000000    -0.00000000000000
  155     0.00000000000000    -0.00000000000000     0.00278366991882     0.00000000000003
  156     0.00000000000001    -0.00000000000000     0.04779219662600     0.00000000000060
  157     0.00000296819318     0.00004150118450    -0.00000000000000     0.00000000000000
  158     0.00000000000000     0.00000000000003    -0.00000000000000     0.00000000000000
  159     0.00000000000000     0.00000000000000    -0.00000000000001     0.00514379462765
  160     0.00000000000000    -0.00000000000000    -0.00000000000015     0.07192037611556
  161     0.00000000000001     0.00000000000009    -0.00000000000000     0.00000000000000
  162    -0.00087061798356    -0.01217295350282     0.00000000000000    -0.00000000000000
  163     0.00000000000000    -0.00000000000000    -0.00461708718515    -0.00000000000220
  164     0.00000000000000    -0.00000000000000     0.00000000000267    -0.00356813018796
  165     0.00000000000000    -0.00000000000000     0.06785614418937     0.00000000000059
  166    -0.00000000000000     0.00000000000000     0.00000000000003     0.04985959249923
  167    -0.00000000000000    -0.00000000000001     0.00000000000000    -0.00000000000000
  168     0.00000000000001     0.00000000000000     0.00000000000001     0.00000000000000
  169    -0.00000000000001     0.00000000000000    -0.08391885400776    -0.00000000000077
  170     0.01852081763582    -0.00132462158015    -0.00000000000000     0.00000000000000
  171     0.00132462158014     0.01852081763582     0.00000000000000    -0.00000000000000
  172    -0.00000000000000     0.00000000000000     0.00000000000041     0.52943903182381
  173     0.00000000000006    -0.00000000000000    -0.00000000000000     0.00000000000002
  174     0.00000000000000     0.00000000000006     0.00000000000000    -0.00000000000000
  175    -0.00000000000000     0.00000000000000    -0.00000000000006    -0.09461182401665
  176    -0.00000000000000     0.00000000000000     0.00282044541806    -0.00000000000108
  177     0.01681368918802     0.00000000000000     0.00000000000000    -0.00000000000000
  178     0.00000000000000     0.01681368918801    -0.00000000000000     0.00000000000000
  179     0.00000000000000    -0.00000000000000     0.04947061044516     0.00000000000060
  180    -0.00000000000000     0.00000000000000     0.00000000000037     0.04054989347847
  181    -0.01424686123240     0.00018834824166    -0.00000000000000    -0.00000000000000
  182     0.00000000000852    -0.00000000000011    -0.00000000000000    -0.00000000000000
  183     0.00247907030328    -0.00003277413354     0.00000000000000    -0.00000000000000
  184    -0.00000000000002     0.00000000000000    -0.00000000000000    -0.00000000000001
  185    -0.00000000000000    -0.00000000000000     0.00000000000001     0.00129345779895
  186     0.00000000000000    -0.00000000000000     0.00000000000028     0.06349146191256
  187     0.00360340154366    -0.00004763816631    -0.00000000000001     0.00000000000000
  188     0.00000000000001    -0.00000000000000     0.04779219662599     0.00000000000058
  189     0.00000000000000    -0.00000000000000     0.00278366991882     0.00000000000003
  190     0.00000000000006    -0.00000000000000    -0.00000000000000     0.00000000000002
  191    -0.00000000000000    -0.00000000000000     0.00000000000084     0.48487512051437
  192     0.00000000000000    -0.00000000000000    -0.00000000000000     0.00000000000000
  193    -0.00000000000031     0.00000000000000    -0.00000000000000     0.00000000000001
  194     0.04271929850510    -0.00056476332768    -0.00000000000003     0.00000000000000
  195     0.00000000000001    -0.00000000000000     0.08287437837663     0.00000000000050
  196    -0.00000000000000    -0.00000000000000    -0.00109562683258    -0.00000000000001
  197     0.04983980894382    -0.00065889884279     0.00000000000001    -0.00000000000000
  198     0.00000000000033    -0.00000000000000    -0.00000000000000    -0.00000000000000
  199    -0.00018834824166    -0.01424686123240     0.00000000000000     0.00000000000000
  200     0.00000000000011     0.00000000000852     0.00000000000000     0.00000000000000
  201     0.00003277413354     0.00247907030328    -0.00000000000000     0.00000000000000
  202    -0.00000000000000    -0.00000000000002     0.00000000000000     0.00000000000000
  203    -0.00000000000000     0.00000000000000    -0.00000000000029    -0.06349146191256
  204    -0.00000000000000    -0.00000000000000     0.00000000000001     0.00129345779895
  205     0.00004763816631     0.00360340154366     0.00000000000000     0.00000000000000
  206    -0.00000000000000     0.00000000000000    -0.00278366991882    -0.00000000000004
  207     0.00000000000001    -0.00000000000000     0.04779219662600     0.00000000000060
  208     0.00000000000000     0.00000000000006     0.00000000000000    -0.00000000000000
  209     0.00000000000000    -0.00000000000000    -0.00000000000000     0.00000000000000
  210     0.00000000000000     0.00000000000000     0.00000000000089     0.48487512051436
  211    -0.00000000000000    -0.00000000000031     0.00000000000001    -0.00000000000000
  212     0.00056476332768     0.04271929850510     0.00000000000000    -0.00000000000000
  213     0.00000000000000     0.00000000000001     0.00109562683258     0.00000000000001
  214     0.00000000000001    -0.00000000000000     0.08287437837662     0.00000000000048
  215     0.00065889884279     0.04983980894382    -0.00000000000000     0.00000000000000
  216     0.00000000000000     0.00000000000033     0.00000000000000     0.00000000000000
  217    -0.00000000000000     0.00000000000000     0.00941655020906     0.00000000000500
  218    -0.00000000000000     0.00000000000000    -0.00000000000568     0.00836325308367
  219     0.00000000000000    -0.00000000000000    -0.01452170083428    -0.00000000000041
  220     0.00000000000000    -0.00000000000000    -0.00000000000032     0.03541612028589
  221    -0.00000000000000     0.00000000000006    -0.00000000000000     0.00000000000000
  222    -0.00000000000006    -0.00000000000000    -0.00000000000000     0.00000000000001
  223     0.00000000000001    -0.00000000000000     0.04206499242761    -0.00000000000069
  224     0.00004150118450    -0.00000296819318     0.00000000000001    -0.00000000000000
  225     0.00000296819318     0.00004150118450    -0.00000000000000     0.00000000000000
  226    -0.00000000000000     0.00000000000000    -0.00000000000006    -0.09461182401665
  227    -0.00000000000031     0.00000000000000    -0.00000000000000     0.00000000000001
  228    -0.00000000000000    -0.00000000000031     0.00000000000001    -0.00000000000000
  229    -0.00000000000000     0.00000000000000    -0.00000000000196     0.43386900160731
  230     0.00000000000002    -0.00000000000000     0.06945743943186     0.00000000000057
  231     0.02129820764565    -0.00000000000000     0.00000000000003    -0.00000000000000
  232    -0.00000000000000     0.02129820764565    -0.00000000000000    -0.00000000000000
  233     0.00000000000001    -0.00000000000000    -0.04510472839087    -0.00000000000034
  234    -0.00000000000000     0.00000000000000    -0.00000000000070     0.00506229477092
  235    -0.00000000000000     0.00000000000000     0.00000000000580     0.00892068650642
  236     0.00000000000000    -0.00000000000000     0.00934551428226    -0.00000000000516
  237     0.00000000000000    -0.00000000000000    -0.00000000000008     0.03053187982821
  238     0.00000000000000    -0.00000000000000     0.02511109831597     0.00000000000074
  239    -0.00001406751069     0.00196751283320    -0.00000000000000     0.00000000000000
  240    -0.00196751283320    -0.00001406751069    -0.00000000000000    -0.00000000000000
  241     0.00000000000000    -0.00000000000000     0.00000000000043     0.06512930493231
  242     0.00000000000003    -0.00000000000000     0.00000000000000    -0.00000000000001
  243     0.00000000000000     0.00000000000002    -0.00000000000000     0.00000000000000
  244    -0.00000000000000     0.00000000000000     0.00282044541806    -0.00000000000108
  245     0.04271929850510    -0.00056476332768    -0.00000000000003     0.00000000000000
  246     0.00056476332768     0.04271929850510     0.00000000000000    -0.00000000000000
  247     0.00000000000002    -0.00000000000000     0.06945743943186     0.00000000000057
  248     0.00000000000000    -0.00000000000000     0.00000000000176     0.43370201982042
  249     0.00000000000001     0.00000000000000     0.00000000000000    -0.00000000000000
  250     0.00000000000000    -0.00000000000001    -0.00000000000001     0.00000000000000
  251     0.00000000000000    -0.00000000000000    -0.00000000000090     0.02161382799664
  252    -0.00000000000000     0.00000000000000     0.04188375981916     0.00000000000058
  253    -0.00000000000779    -0.00000000000000     0.00000000000000     0.00000000000000
  254    -0.01311504525154    -0.00000000000000     0.00000000000000     0.00000000000000
  255    -0.00000000000001    -0.00000000000000    -0.00000000000000     0.00000000000000
  256     0.00092878450244     0.00000000000000     0.00000000000000     0.00000000000000
  257     0.00000000000000     0.00000000000000     0.00022307479015     0.00000000000000
  258     0.00000000000000    -0.00000000000000     0.03119972837724     0.00000000000015
  259    -0.00000000000002     0.00000000000000     0.00000000000000     0.00000000000001
  260     0.00000000000000    -0.00000000000000    -0.00000000000013     0.07192037611558
  261     0.00000000000000     0.00000000000000    -0.00000000000001     0.00514379462765
  262     0.01681368918802     0.00000000000000     0.00000000000000    -0.00000000000000
  263     0.00000000000001    -0.00000000000000     0.08287437837663     0.00000000000050
  264     0.00000000000000     0.00000000000001     0.00109562683258     0.00000000000001
  265     0.02129820764565    -0.00000000000000     0.00000000000003    -0.00000000000000
  266     0.00000000000001     0.00000000000000     0.00000000000000    -0.00000000000000
  267     0.00000000000000    -0.00000000000000    -0.00000000000067     0.45463137249809
  268    -0.00000000000000     0.00000000000000     0.00000000000000     0.00000000000000
  269    -0.00000000000057     0.00000000000000    -0.00000000000000     0.00000000000000
  270     0.05456518506805    -0.00000000000000     0.00000000000001     0.00000000000000
  271    -0.00000000000000    -0.00000000000778    -0.00000000000000    -0.00000000000000
  272    -0.00000000000000    -0.01311504525154    -0.00000000000000    -0.00000000000000
  273    -0.00000000000000    -0.00000000000002     0.00000000000000    -0.00000000000000
  274     0.00000000000000     0.00092878450242    -0.00000000000000    -0.00000000000000
  275    -0.00000000000000     0.00000000000000    -0.03119972837722    -0.00000000000013
  276     0.00000000000000     0.00000000000000     0.00022307479015     0.00000000000000
  277    -0.00000000000000    -0.00000000000002    -0.00000000000000    -0.00000000000000
  278    -0.00000000000000     0.00000000000000     0.00000000000001    -0.00514379462765
  279     0.00000000000000    -0.00000000000000    -0.00000000000015     0.07192037611556
  280     0.00000000000000     0.01681368918801    -0.00000000000000     0.00000000000000
  281    -0.00000000000000    -0.00000000000000    -0.00109562683258    -0.00000000000001
  282     0.00000000000001    -0.00000000000000     0.08287437837662     0.00000000000048
  283    -0.00000000000000     0.02129820764565    -0.00000000000000    -0.00000000000000
  284     0.00000000000000    -0.00000000000001    -0.00000000000001     0.00000000000000
  285    -0.00000000000000     0.00000000000000     0.00000000000000     0.00000000000000
  286     0.00000000000000    -0.00000000000000    -0.00000000000073     0.45463137249806
  287    -0.00000000000000    -0.00000000000059     0.00000000000000    -0.00000000000000
  288    -0.00000000000000     0.05456518506806    -0.00000000000000    -0.00000000000000
  289     0.00000000000000    -0.00000000000000    -0.00000000000161    -0.00108047476928
  290     0.00000000000000    -0.00000000000000    -0.00247453242339     0.00000000000057
  291    -0.00000000000000     0.00000000000000     0.00000000000003     0.03778372688889
  292     0.00000000000000    -0.00000000000000     0.02508851989497    -0.00000000000018
  293    -0.00009195514904     0.01286104839962     0.00000000000000     0.00000000000000
  294    -0.01286104839961    -0.00009195514904    -0.00000000000000     0.00000000000000
  295    -0.00000000000000     0.00000000000000    -0.00000000000024    -0.03958296855656
  296     0.00000000000009    -0.00000000000001     0.00000000000000    -0.00000000000000
  297     0.00000000000001     0.00000000000009    -0.00000000000000     0.00000000000000
  298     0.00000000000000    -0.00000000000000     0.04947061044516     0.00000000000060
  299     0.04983980894382    -0.00065889884279     0.00000000000001    -0.00000000000000
  300     0.00065889884279     0.04983980894382    -0.00000000000000     0.00000000000000
  301     0.00000000000001    -0.00000000000000    -0.04510472839087    -0.00000000000034
  302     0.00000000000000    -0.00000000000000    -0.00000000000090     0.02161382799664
  303    -0.00000000000057     0.00000000000000    -0.00000000000000     0.00000000000000
  304    -0.00000000000000    -0.00000000000059     0.00000000000000    -0.00000000000000
  305    -0.00000000000000     0.00000000000000     0.00000000000017     0.51591118087371
  306     0.00000000000001    -0.00000000000000     0.06221253967877     0.00000000000061
  307     0.00000000000000    -0.00000000000000     0.00366049747212     0.00000000000253
  308     0.00000000000000     0.00000000000000    -0.00000000000222     0.00417791986863
  309     0.00000000000000    -0.00000000000000     0.02723488121681     0.00000000000048
  310     0.00000000000000    -0.00000000000000     0.00000000000020     0.03593680091206
  311     0.00000000000000    -0.00000000000000     0.00000000000000     0.00000000000000
  312     0.00000000000000     0.00000000000000     0.00000000000000     0.00000000000000
  313     0.00000000000000    -0.00000000000000    -0.00806763034681    -0.00000000000034
  314    -0.01217295350282     0.00087061798356    -0.00000000000000     0.00000000000000
  315    -0.00087061798356    -0.01217295350282     0.00000000000000    -0.00000000000000
  316    -0.00000000000000     0.00000000000000     0.00000000000037     0.04054989347847
  317     0.00000000000033    -0.00000000000000    -0.00000000000000    -0.00000000000000
  318     0.00000000000000     0.00000000000033     0.00000000000000     0.00000000000000
  319    -0.00000000000000     0.00000000000000    -0.00000000000070     0.00506229477092
  320    -0.00000000000000     0.00000000000000     0.04188375981916     0.00000000000058
  321     0.05456518506805    -0.00000000000000     0.00000000000001     0.00000000000000
  322    -0.00000000000000     0.05456518506806    -0.00000000000000    -0.00000000000000
  323     0.00000000000001    -0.00000000000000     0.06221253967877     0.00000000000061
  324     0.00000000000000    -0.00000000000000     0.00000000000061     0.47878681916772




MP2_energy =      -0.239090372026 for laplace
MP2_energy =      -0.239184080967 for density fitting
ERROR =       0.000093708941  ==> DF Tensor (by Rob Parrish) <==

 => Primary Basis Set <= 

  Basis Set: 6-31G
    Number of shells: 10
    Number of basis function: 18
    Number of Cartesian functions: 18
    Spherical Harmonics?: false
    Max angular momentum: 1

 => Auxiliary Basis Set <= 

  Basis Set: CC-PVDZ-RI
    Number of shells: 36
    Number of basis function: 112
    Number of Cartesian functions: 132
    Spherical Harmonics?: true
    Max angular momentum: 3


*** tstop() called on Kevins-MacBook-Pro.local at Thu Jan  8 00:09:28 2015
Module time:
	user time   =       1.12 seconds =       0.02 minutes
	system time =       0.60 seconds =       0.01 minutes
	total time  =          2 seconds =       0.03 minutes
Total time:
	user time   =       4.05 seconds =       0.07 minutes
	system time =       0.72 seconds =       0.01 minutes
	total time  =          5 seconds =       0.08 minutes

*** PSI4 exiting successfully. Buy a developer a beer!
