
Host: Kevins-MacBook-Pro.local

Timers On : Tue Dec 30 10:36:28 2014
Timers Off: Tue Dec 30 10:36:30 2014

Wall Time:        2.00 seconds

JK: (A|mn)  :       0.12u       0.00s       0.00w      3 calls
JK: (A|Q)^-1/2:       0.20u       0.00s       0.00w      3 calls
JK: (Q|mn)  :       0.00u       0.00s       0.00w      3 calls
Form H      :       0.00u       0.00s       0.00w      3 calls
Form S/X    :       0.00u       0.00s       0.00w      3 calls
Guess       :       0.00u       0.00s       0.00w      3 calls
Form G      :       0.10u       0.02s       0.00w     34 calls
JK: D       :       0.00u       0.00s       0.00w     34 calls
JK: USO2AO  :       0.00u       0.00s       0.00w     28 calls
JK: JK      :       0.03u       0.02s       0.00w     34 calls
JK: J       :       0.00u       0.00s       0.00w     28 calls
JK: J1      :       0.00u       0.00s       0.00w     28 calls
JK: J2      :       0.00u       0.00s       0.00w     28 calls
JK: K       :       0.02u       0.00s       0.00w     28 calls
JK: K1      :       0.02u       0.00s       0.00w     28 calls
JK: K2      :       0.00u       0.00s       0.00w     28 calls
JK: AO2USO  :       0.00u       0.00s       0.00w     28 calls
Form F      :       0.00u       0.00s       0.00w     34 calls
DIIS        :       0.02u       0.00s       0.00w     34 calls
DIISManager::add_entry:       0.00u       0.00s       0.00w     34 calls
Form C      :       0.00u       0.00s       0.00w     34 calls
Form D      :       0.00u       0.00s       0.00w     34 calls
DIISManager::extrapolate:       0.02u       0.00s       0.00w     31 calls
DIISManager::extrapolate: bMatrix setup:       0.00u       0.00s       0.00w     31 calls
DIISManager::extrapolate: bMatrix pseudoinverse:       0.02u       0.00s       0.00w     31 calls
DIISManager::extrapolate: form new data:       0.00u       0.00s       0.00w     31 calls
DFMP2 Singles:       0.00u       0.00s       0.00w      1 call
DFMP2 Aia   :       0.50u       0.32s       0.00w      1 call
DFMP2 (A|mn):       0.25u       0.20s       0.00w      1 call
DFMP2 (A|mn)C_mi:       0.00u       0.00s       0.00w      1 call
DFMP2 (A|mi)C_na:       0.00u       0.00s       0.00w      1 call
DFMP2 Aia Write:       0.00u       0.00s       0.00w      1 call
DFMP2 Qia   :       0.13u       0.05s       1.00w      1 call
DFMP2 Metric:       0.08u       0.00s       1.00w      1 call
DFMP2 Aia Read:       0.00u       0.00s       0.00w      1 call
DFMP2 (Q|A)(A|ia):       0.00u       0.00s       0.00w      1 call
DFMP2 Qia Write:       0.00u       0.00s       0.00w      1 call
DFMP2 Energy:       0.00u       0.00s       0.00w      1 call
DFMP2 Qia Read:       0.00u       0.00s       0.00w      2 calls

***********************************************************

Host: Kevins-MacBook-Pro.local

Timers On : Tue Dec 30 10:38:24 2014
Timers Off: Tue Dec 30 10:38:26 2014

Wall Time:        2.00 seconds

JK: (A|mn)  :       0.12u       0.00s       1.00w      3 calls
JK: (A|Q)^-1/2:       0.20u       0.00s       0.00w      3 calls
JK: (Q|mn)  :       0.02u       0.00s       0.00w      3 calls
Form H      :       0.00u       0.02s       0.00w      3 calls
Form S/X    :       0.00u       0.00s       0.00w      3 calls
Guess       :       0.02u       0.00s       0.00w      3 calls
Form G      :       0.10u       0.00s       0.00w     34 calls
JK: D       :       0.00u       0.00s       0.00w     34 calls
JK: USO2AO  :       0.00u       0.00s       0.00w     28 calls
JK: JK      :       0.07u       0.00s       0.00w     34 calls
JK: J       :       0.00u       0.00s       0.00w     28 calls
JK: J1      :       0.00u       0.00s       0.00w     28 calls
JK: J2      :       0.00u       0.00s       0.00w     28 calls
JK: K       :       0.05u       0.00s       0.00w     28 calls
JK: K1      :       0.02u       0.00s       0.00w     28 calls
JK: K2      :       0.03u       0.00s       0.00w     28 calls
JK: AO2USO  :       0.00u       0.00s       0.00w     28 calls
Form F      :       0.00u       0.00s       0.00w     34 calls
DIIS        :       0.02u       0.00s       0.00w     34 calls
DIISManager::add_entry:       0.00u       0.00s       0.00w     34 calls
Form C      :       0.00u       0.00s       0.00w     34 calls
Form D      :       0.00u       0.00s       0.00w     34 calls
DIISManager::extrapolate:       0.00u       0.00s       0.00w     31 calls
DIISManager::extrapolate: bMatrix setup:       0.00u       0.00s       0.00w     31 calls
DIISManager::extrapolate: bMatrix pseudoinverse:       0.00u       0.00s       0.00w     31 calls
DIISManager::extrapolate: form new data:       0.00u       0.00s       0.00w     31 calls
DFMP2 Singles:       0.00u       0.00s       0.00w      1 call
DFMP2 Aia   :       0.50u       0.32s       0.00w      1 call
DFMP2 (A|mn):       0.25u       0.20s       0.00w      1 call
DFMP2 (A|mn)C_mi:       0.00u       0.00s       0.00w      1 call
DFMP2 (A|mi)C_na:       0.00u       0.00s       0.00w      1 call
DFMP2 Aia Write:       0.00u       0.00s       0.00w      1 call
DFMP2 Qia   :       0.12u       0.05s       0.00w      1 call
DFMP2 Metric:       0.07u       0.00s       0.00w      1 call
DFMP2 Aia Read:       0.00u       0.00s       0.00w      1 call
DFMP2 (Q|A)(A|ia):       0.00u       0.00s       0.00w      1 call
DFMP2 Qia Write:       0.00u       0.00s       0.00w      1 call
DFMP2 Energy:       0.00u       0.00s       0.00w      1 call
DFMP2 Qia Read:       0.00u       0.00s       0.00w      2 calls

***********************************************************

Host: Kevins-MacBook-Pro.local

Timers On : Tue Dec 30 10:52:57 2014
Timers Off: Tue Dec 30 10:52:59 2014

Wall Time:        2.00 seconds

JK: (A|mn)  :       0.10u       0.00s       0.00w      3 calls
JK: (A|Q)^-1/2:       0.20u       0.00s       1.00w      3 calls
JK: (Q|mn)  :       0.00u       0.00s       0.00w      3 calls
Form H      :       0.00u       0.00s       0.00w      3 calls
Form S/X    :       0.00u       0.00s       0.00w      3 calls
Guess       :       0.00u       0.00s       0.00w      3 calls
Form G      :       0.12u       0.00s       0.00w     34 calls
JK: D       :       0.00u       0.00s       0.00w     34 calls
JK: USO2AO  :       0.00u       0.00s       0.00w     28 calls
JK: JK      :       0.07u       0.00s       0.00w     34 calls
JK: J       :       0.00u       0.00s       0.00w     28 calls
JK: J1      :       0.00u       0.00s       0.00w     28 calls
JK: J2      :       0.00u       0.00s       0.00w     28 calls
JK: K       :       0.07u       0.00s       0.00w     28 calls
JK: K1      :       0.05u       0.00s       0.00w     28 calls
JK: K2      :       0.02u       0.00s       0.00w     28 calls
JK: AO2USO  :       0.00u       0.00s       0.00w     28 calls
Form F      :       0.00u       0.00s       0.00w     34 calls
DIIS        :       0.02u       0.00s       0.00w     34 calls
DIISManager::add_entry:       0.00u       0.00s       0.00w     34 calls
Form C      :       0.00u       0.00s       0.00w     34 calls
Form D      :       0.00u       0.00s       0.00w     34 calls
DIISManager::extrapolate:       0.02u       0.00s       0.00w     31 calls
DIISManager::extrapolate: bMatrix setup:       0.00u       0.00s       0.00w     31 calls
DIISManager::extrapolate: bMatrix pseudoinverse:       0.00u       0.00s       0.00w     31 calls
DIISManager::extrapolate: form new data:       0.02u       0.00s       0.00w     31 calls
DFMP2 Singles:       0.00u       0.00s       0.00w      1 call
DFMP2 Aia   :       0.53u       0.35s       0.00w      1 call
DFMP2 (A|mn):       0.25u       0.22s       0.00w      1 call
DFMP2 (A|mn)C_mi:       0.00u       0.00s       0.00w      1 call
DFMP2 (A|mi)C_na:       0.00u       0.00s       0.00w      1 call
DFMP2 Aia Write:       0.00u       0.00s       0.00w      1 call
DFMP2 Qia   :       0.12u       0.05s       0.00w      1 call
DFMP2 Metric:       0.05u       0.00s       0.00w      1 call
DFMP2 Aia Read:       0.00u       0.00s       0.00w      1 call
DFMP2 (Q|A)(A|ia):       0.00u       0.00s       0.00w      1 call
DFMP2 Qia Write:       0.00u       0.00s       0.00w      1 call
DFMP2 Energy:       0.00u       0.00s       0.00w      1 call
DFMP2 Qia Read:       0.00u       0.00s       0.00w      2 calls

***********************************************************

Host: Kevins-MacBook-Pro.local

Timers On : Tue Dec 30 10:53:23 2014
Timers Off: Tue Dec 30 10:53:25 2014

Wall Time:        2.00 seconds

JK: (A|mn)  :       0.12u       0.00s       0.00w      3 calls
JK: (A|Q)^-1/2:       0.20u       0.00s       0.00w      3 calls
JK: (Q|mn)  :       0.00u       0.00s       0.00w      3 calls
Form H      :       0.00u       0.00s       0.00w      3 calls
Form S/X    :       0.00u       0.00s       0.00w      3 calls
Guess       :       0.00u       0.00s       0.00w      3 calls
Form G      :       0.10u       0.00s       1.00w     34 calls
JK: D       :       0.00u       0.00s       0.00w     34 calls
JK: USO2AO  :       0.00u       0.00s       0.00w     28 calls
JK: JK      :       0.05u       0.00s       1.00w     34 calls
JK: J       :       0.00u       0.00s       0.00w     28 calls
JK: J1      :       0.00u       0.00s       0.00w     28 calls
JK: J2      :       0.00u       0.00s       0.00w     28 calls
JK: K       :       0.05u       0.00s       1.00w     28 calls
JK: K1      :       0.05u       0.00s       1.00w     28 calls
JK: K2      :       0.00u       0.00s       0.00w     28 calls
JK: AO2USO  :       0.00u       0.00s       0.00w     28 calls
Form F      :       0.00u       0.00s       0.00w     34 calls
DIIS        :       0.02u       0.00s       0.00w     34 calls
DIISManager::add_entry:       0.00u       0.00s       0.00w     34 calls
Form C      :       0.00u       0.00s       0.00w     34 calls
Form D      :       0.02u       0.00s       0.00w     34 calls
DIISManager::extrapolate:       0.00u       0.00s       0.00w     31 calls
DIISManager::extrapolate: bMatrix setup:       0.00u       0.00s       0.00w     31 calls
DIISManager::extrapolate: bMatrix pseudoinverse:       0.00u       0.00s       0.00w     31 calls
DIISManager::extrapolate: form new data:       0.00u       0.00s       0.00w     31 calls
DFMP2 Singles:       0.00u       0.00s       0.00w      1 call
DFMP2 Aia   :       0.53u       0.32s       0.00w      1 call
DFMP2 (A|mn):       0.25u       0.22s       0.00w      1 call
DFMP2 (A|mn)C_mi:       0.00u       0.00s       0.00w      1 call
DFMP2 (A|mi)C_na:       0.00u       0.00s       0.00w      1 call
DFMP2 Aia Write:       0.00u       0.00s       0.00w      1 call
DFMP2 Qia   :       0.12u       0.05s       0.00w      1 call
DFMP2 Metric:       0.05u       0.00s       0.00w      1 call
DFMP2 Aia Read:       0.00u       0.00s       0.00w      1 call
DFMP2 (Q|A)(A|ia):       0.00u       0.00s       0.00w      1 call
DFMP2 Qia Write:       0.00u       0.00s       0.00w      1 call
DFMP2 Energy:       0.00u       0.00s       0.00w      1 call
DFMP2 Qia Read:       0.00u       0.00s       0.00w      2 calls

***********************************************************

Host: Kevins-MacBook-Pro.local

Timers On : Tue Dec 30 14:16:20 2014
Timers Off: Tue Dec 30 14:16:23 2014

Wall Time:        3.00 seconds

JK: (A|mn)  :       0.10u       0.00s       0.00w      3 calls
JK: (A|Q)^-1/2:       0.20u       0.00s       0.00w      3 calls
JK: (Q|mn)  :       0.00u       0.00s       0.00w      3 calls
Form H      :       0.02u       0.00s       0.00w      3 calls
Form S/X    :       0.00u       0.00s       0.00w      3 calls
Guess       :       0.00u       0.00s       0.00w      3 calls
Form G      :       0.10u       0.00s       0.00w     34 calls
JK: D       :       0.00u       0.00s       0.00w     34 calls
JK: USO2AO  :       0.00u       0.00s       0.00w     28 calls
JK: JK      :       0.05u       0.00s       0.00w     34 calls
JK: J       :       0.00u       0.00s       0.00w     28 calls
JK: J1      :       0.00u       0.00s       0.00w     28 calls
JK: J2      :       0.00u       0.00s       0.00w     28 calls
JK: K       :       0.05u       0.00s       0.00w     28 calls
JK: K1      :       0.03u       0.00s       0.00w     28 calls
JK: K2      :       0.00u       0.00s       0.00w     28 calls
JK: AO2USO  :       0.00u       0.00s       0.00w     28 calls
Form F      :       0.00u       0.00s       0.00w     34 calls
DIIS        :       0.00u       0.00s       0.00w     34 calls
DIISManager::add_entry:       0.00u       0.00s       0.00w     34 calls
Form C      :       0.02u       0.00s       0.00w     34 calls
Form D      :       0.00u       0.00s       0.00w     34 calls
DIISManager::extrapolate:       0.00u       0.00s       0.00w     31 calls
DIISManager::extrapolate: bMatrix setup:       0.00u       0.00s       0.00w     31 calls
DIISManager::extrapolate: bMatrix pseudoinverse:       0.00u       0.00s       0.00w     31 calls
DIISManager::extrapolate: form new data:       0.00u       0.00s       0.00w     31 calls
DFMP2 Singles:       0.00u       0.00s       0.00w      1 call
DFMP2 Aia   :       0.52u       0.32s       1.00w      1 call
DFMP2 (A|mn):       0.25u       0.20s       0.00w      1 call
DFMP2 (A|mn)C_mi:       0.00u       0.00s       0.00w      1 call
DFMP2 (A|mi)C_na:       0.00u       0.00s       0.00w      1 call
DFMP2 Aia Write:       0.00u       0.00s       0.00w      1 call
DFMP2 Qia   :       0.12u       0.05s       0.00w      1 call
DFMP2 Metric:       0.07u       0.00s       0.00w      1 call
DFMP2 Aia Read:       0.00u       0.00s       0.00w      1 call
DFMP2 (Q|A)(A|ia):       0.00u       0.00s       0.00w      1 call
DFMP2 Qia Write:       0.00u       0.00s       0.00w      1 call
DFMP2 Energy:       0.00u       0.00s       0.00w      1 call
DFMP2 Qia Read:       0.00u       0.00s       0.00w      2 calls

***********************************************************

Host: Kevins-MacBook-Pro.local

Timers On : Tue Dec 30 14:20:21 2014
Timers Off: Tue Dec 30 14:20:25 2014

Wall Time:        4.00 seconds

JK: (A|mn)  :       0.10u       0.00s       0.00w      3 calls
JK: (A|Q)^-1/2:       0.22u       0.00s       0.00w      3 calls
JK: (Q|mn)  :       0.00u       0.00s       0.00w      3 calls
Form H      :       0.02u       0.00s       0.00w      3 calls
Form S/X    :       0.00u       0.00s       0.00w      3 calls
Guess       :       0.00u       0.00s       0.00w      3 calls
Form G      :       0.07u       0.00s       0.00w     34 calls
JK: D       :       0.00u       0.00s       0.00w     34 calls
JK: USO2AO  :       0.00u       0.00s       0.00w     28 calls
JK: JK      :       0.03u       0.00s       0.00w     34 calls
JK: J       :       0.00u       0.00s       0.00w     28 calls
JK: J1      :       0.00u       0.00s       0.00w     28 calls
JK: J2      :       0.00u       0.00s       0.00w     28 calls
JK: K       :       0.02u       0.00s       0.00w     28 calls
JK: K1      :       0.00u       0.00s       0.00w     28 calls
JK: K2      :       0.02u       0.00s       0.00w     28 calls
JK: AO2USO  :       0.00u       0.00s       0.00w     28 calls
Form F      :       0.00u       0.00s       0.00w     34 calls
DIIS        :       0.05u       0.00s       0.00w     34 calls
DIISManager::add_entry:       0.02u       0.00s       0.00w     34 calls
Form C      :       0.00u       0.00s       0.00w     34 calls
Form D      :       0.00u       0.00s       0.00w     34 calls
DIISManager::extrapolate:       0.03u       0.00s       0.00w     31 calls
DIISManager::extrapolate: bMatrix setup:       0.00u       0.00s       0.00w     31 calls
DIISManager::extrapolate: bMatrix pseudoinverse:       0.02u       0.00s       0.00w     31 calls
DIISManager::extrapolate: form new data:       0.02u       0.00s       0.00w     31 calls
DFMP2 Singles:       0.00u       0.00s       0.00w      1 call
DFMP2 Aia   :       0.50u       0.33s       1.00w      1 call
DFMP2 (A|mn):       0.25u       0.22s       0.00w      1 call
DFMP2 (A|mn)C_mi:       0.00u       0.00s       0.00w      1 call
DFMP2 (A|mi)C_na:       0.00u       0.00s       0.00w      1 call
DFMP2 Aia Write:       0.00u       0.00s       0.00w      1 call
DFMP2 Qia   :       0.13u       0.05s       0.00w      1 call
DFMP2 Metric:       0.07u       0.00s       0.00w      1 call
DFMP2 Aia Read:       0.00u       0.00s       0.00w      1 call
DFMP2 (Q|A)(A|ia):       0.00u       0.00s       0.00w      1 call
DFMP2 Qia Write:       0.00u       0.00s       0.00w      1 call
DFMP2 Energy:       0.00u       0.00s       0.00w      1 call
DFMP2 Qia Read:       0.00u       0.00s       0.00w      2 calls

***********************************************************

Host: Kevins-MacBook-Pro.local

Timers On : Tue Dec 30 14:20:39 2014
Timers Off: Tue Dec 30 14:20:44 2014

Wall Time:        5.00 seconds

JK: (A|mn)  :       0.10u       0.00s       0.00w      3 calls
JK: (A|Q)^-1/2:       0.20u       0.00s       1.00w      3 calls
JK: (Q|mn)  :       0.00u       0.00s       0.00w      3 calls
Form H      :       0.00u       0.00s       0.00w      3 calls
Form S/X    :       0.02u       0.00s       0.00w      3 calls
Guess       :       0.00u       0.00s       0.00w      3 calls
Form G      :       0.07u       0.00s       0.00w     34 calls
JK: D       :       0.00u       0.00s       0.00w     34 calls
JK: USO2AO  :       0.00u       0.00s       0.00w     28 calls
JK: JK      :       0.02u       0.00s       0.00w     34 calls
JK: J       :       0.02u       0.00s       0.00w     28 calls
JK: J1      :       0.00u       0.00s       0.00w     28 calls
JK: J2      :       0.02u       0.00s       0.00w     28 calls
JK: K       :       0.00u       0.00s       0.00w     28 calls
JK: K1      :       0.00u       0.00s       0.00w     28 calls
JK: K2      :       0.00u       0.00s       0.00w     28 calls
JK: AO2USO  :       0.00u       0.00s       0.00w     28 calls
Form F      :       0.00u       0.00s       0.00w     34 calls
DIIS        :       0.02u       0.00s       0.00w     34 calls
DIISManager::add_entry:       0.02u       0.00s       0.00w     34 calls
Form C      :       0.02u       0.00s       0.00w     34 calls
Form D      :       0.00u       0.00s       0.00w     34 calls
DIISManager::extrapolate:       0.00u       0.00s       0.00w     31 calls
DIISManager::extrapolate: bMatrix setup:       0.00u       0.00s       0.00w     31 calls
DIISManager::extrapolate: bMatrix pseudoinverse:       0.00u       0.00s       0.00w     31 calls
DIISManager::extrapolate: form new data:       0.00u       0.00s       0.00w     31 calls
DFMP2 Singles:       0.00u       0.00s       0.00w      1 call
DFMP2 Aia   :       0.50u       0.32s       0.00w      1 call
DFMP2 (A|mn):       0.23u       0.20s       0.00w      1 call
DFMP2 (A|mn)C_mi:       0.00u       0.00s       0.00w      1 call
DFMP2 (A|mi)C_na:       0.00u       0.00s       0.00w      1 call
DFMP2 Aia Write:       0.00u       0.00s       0.00w      1 call
DFMP2 Qia   :       0.12u       0.05s       0.00w      1 call
DFMP2 Metric:       0.07u       0.00s       0.00w      1 call
DFMP2 Aia Read:       0.00u       0.00s       0.00w      1 call
DFMP2 (Q|A)(A|ia):       0.00u       0.00s       0.00w      1 call
DFMP2 Qia Write:       0.00u       0.00s       0.00w      1 call
DFMP2 Energy:       0.00u       0.00s       0.00w      1 call
DFMP2 Qia Read:       0.00u       0.00s       0.00w      2 calls

***********************************************************

Host: Kevins-MacBook-Pro.local

Timers On : Tue Dec 30 14:35:52 2014
Timers Off: Tue Dec 30 14:35:57 2014

Wall Time:        5.00 seconds

JK: (A|mn)  :       0.10u       0.00s       0.00w      3 calls
JK: (A|Q)^-1/2:       0.20u       0.00s       0.00w      3 calls
JK: (Q|mn)  :       0.00u       0.00s       0.00w      3 calls
Form H      :       0.02u       0.00s       0.00w      3 calls
Form S/X    :       0.00u       0.00s       0.00w      3 calls
Guess       :       0.00u       0.00s       0.00w      3 calls
Form G      :       0.08u       0.02s       0.00w     34 calls
JK: D       :       0.00u       0.00s       0.00w     34 calls
JK: USO2AO  :       0.00u       0.00s       0.00w     28 calls
JK: JK      :       0.03u       0.02s       0.00w     34 calls
JK: J       :       0.00u       0.00s       0.00w     28 calls
JK: J1      :       0.00u       0.00s       0.00w     28 calls
JK: J2      :       0.00u       0.00s       0.00w     28 calls
JK: K       :       0.03u       0.00s       0.00w     28 calls
JK: K1      :       0.03u       0.00s       0.00w     28 calls
JK: K2      :       0.00u       0.00s       0.00w     28 calls
JK: AO2USO  :       0.00u       0.00s       0.00w     28 calls
Form F      :       0.00u       0.00s       0.00w     34 calls
DIIS        :       0.00u       0.00s       0.00w     34 calls
DIISManager::add_entry:       0.00u       0.00s       0.00w     34 calls
Form C      :       0.03u       0.00s       0.00w     34 calls
Form D      :       0.00u       0.00s       0.00w     34 calls
DIISManager::extrapolate:       0.00u       0.00s       0.00w     31 calls
DIISManager::extrapolate: bMatrix setup:       0.00u       0.00s       0.00w     31 calls
DIISManager::extrapolate: bMatrix pseudoinverse:       0.00u       0.00s       0.00w     31 calls
DIISManager::extrapolate: form new data:       0.00u       0.00s       0.00w     31 calls
DFMP2 Singles:       0.00u       0.00s       0.00w      1 call
DFMP2 Aia   :       0.50u       0.33s       0.00w      1 call
DFMP2 (A|mn):       0.25u       0.22s       0.00w      1 call
DFMP2 (A|mn)C_mi:       0.00u       0.00s       0.00w      1 call
DFMP2 (A|mi)C_na:       0.00u       0.00s       0.00w      1 call
DFMP2 Aia Write:       0.00u       0.00s       0.00w      1 call
DFMP2 Qia   :       0.13u       0.05s       0.00w      1 call
DFMP2 Metric:       0.08u       0.00s       0.00w      1 call
DFMP2 Aia Read:       0.00u       0.00s       0.00w      1 call
DFMP2 (Q|A)(A|ia):       0.00u       0.00s       0.00w      1 call
DFMP2 Qia Write:       0.00u       0.00s       0.00w      1 call
DFMP2 Energy:       0.00u       0.00s       0.00w      1 call
DFMP2 Qia Read:       0.00u       0.00s       0.00w      2 calls

***********************************************************

Host: Kevins-MacBook-Pro.local

Timers On : Tue Dec 30 15:32:45 2014
Timers Off: Tue Dec 30 15:32:50 2014

Wall Time:        5.00 seconds

JK: (A|mn)  :       0.10u       0.00s       0.00w      3 calls
JK: (A|Q)^-1/2:       0.20u       0.00s       0.00w      3 calls
JK: (Q|mn)  :       0.00u       0.00s       0.00w      3 calls
Form H      :       0.00u       0.00s       0.00w      3 calls
Form S/X    :       0.00u       0.00s       0.00w      3 calls
Guess       :       0.02u       0.00s       0.00w      3 calls
Form G      :       0.12u       0.02s       0.00w     34 calls
JK: D       :       0.00u       0.00s       0.00w     34 calls
JK: USO2AO  :       0.00u       0.00s       0.00w     28 calls
JK: JK      :       0.03u       0.02s       0.00w     34 calls
JK: J       :       0.00u       0.00s       0.00w     28 calls
JK: J1      :       0.00u       0.00s       0.00w     28 calls
JK: J2      :       0.00u       0.00s       0.00w     28 calls
JK: K       :       0.03u       0.00s       0.00w     28 calls
JK: K1      :       0.02u       0.00s       0.00w     28 calls
JK: K2      :       0.02u       0.00s       0.00w     28 calls
JK: AO2USO  :       0.00u       0.00s       0.00w     28 calls
Form F      :       0.00u       0.00s       0.00w     34 calls
DIIS        :       0.00u       0.00s       0.00w     34 calls
DIISManager::add_entry:       0.00u       0.00s       0.00w     34 calls
Form C      :       0.00u       0.00s       0.00w     34 calls
Form D      :       0.00u       0.00s       0.00w     34 calls
DIISManager::extrapolate:       0.00u       0.00s       0.00w     31 calls
DIISManager::extrapolate: bMatrix setup:       0.00u       0.00s       0.00w     31 calls
DIISManager::extrapolate: bMatrix pseudoinverse:       0.00u       0.00s       0.00w     31 calls
DIISManager::extrapolate: form new data:       0.00u       0.00s       0.00w     31 calls
DFMP2 Singles:       0.00u       0.00s       0.00w      1 call
DFMP2 Aia   :       0.50u       0.32s       1.00w      1 call
DFMP2 (A|mn):       0.25u       0.20s       1.00w      1 call
DFMP2 (A|mn)C_mi:       0.00u       0.00s       0.00w      1 call
DFMP2 (A|mi)C_na:       0.00u       0.00s       0.00w      1 call
DFMP2 Aia Write:       0.00u       0.00s       0.00w      1 call
DFMP2 Qia   :       0.13u       0.05s       0.00w      1 call
DFMP2 Metric:       0.08u       0.00s       0.00w      1 call
DFMP2 Aia Read:       0.00u       0.00s       0.00w      1 call
DFMP2 (Q|A)(A|ia):       0.00u       0.00s       0.00w      1 call
DFMP2 Qia Write:       0.00u       0.00s       0.00w      1 call
DFMP2 Energy:       0.00u       0.00s       0.00w      1 call
DFMP2 Qia Read:       0.00u       0.00s       0.00w      2 calls

***********************************************************

Host: Kevins-MacBook-Pro.local

Timers On : Tue Dec 30 17:08:30 2014
Timers Off: Tue Dec 30 17:08:35 2014

Wall Time:        5.00 seconds

JK: (A|mn)  :       0.10u       0.00s       0.00w      3 calls
JK: (A|Q)^-1/2:       0.20u       0.00s       0.00w      3 calls
JK: (Q|mn)  :       0.02u       0.00s       0.00w      3 calls
Form H      :       0.00u       0.00s       0.00w      3 calls
Form S/X    :       0.00u       0.00s       0.00w      3 calls
Guess       :       0.00u       0.00s       0.00w      3 calls
Form G      :       0.12u       0.00s       0.00w     34 calls
JK: D       :       0.00u       0.00s       0.00w     34 calls
JK: USO2AO  :       0.00u       0.00s       0.00w     28 calls
JK: JK      :       0.07u       0.00s       0.00w     34 calls
JK: J       :       0.00u       0.00s       0.00w     28 calls
JK: J1      :       0.00u       0.00s       0.00w     28 calls
JK: J2      :       0.00u       0.00s       0.00w     28 calls
JK: K       :       0.05u       0.00s       0.00w     28 calls
JK: K1      :       0.05u       0.00s       0.00w     28 calls
JK: K2      :       0.00u       0.00s       0.00w     28 calls
JK: AO2USO  :       0.00u       0.00s       0.00w     28 calls
Form F      :       0.00u       0.00s       0.00w     34 calls
DIIS        :       0.00u       0.02s       0.00w     34 calls
DIISManager::add_entry:       0.00u       0.02s       0.00w     34 calls
Form C      :       0.00u       0.00s       0.00w     34 calls
Form D      :       0.00u       0.02s       0.00w     34 calls
DIISManager::extrapolate:       0.00u       0.00s       0.00w     31 calls
DIISManager::extrapolate: bMatrix setup:       0.00u       0.00s       0.00w     31 calls
DIISManager::extrapolate: bMatrix pseudoinverse:       0.00u       0.00s       0.00w     31 calls
DIISManager::extrapolate: form new data:       0.00u       0.00s       0.00w     31 calls
DFMP2 Singles:       0.00u       0.00s       0.00w      1 call
DFMP2 Aia   :       0.52u       0.33s       1.00w      1 call
DFMP2 (A|mn):       0.25u       0.22s       1.00w      1 call
DFMP2 (A|mn)C_mi:       0.00u       0.00s       0.00w      1 call
DFMP2 (A|mi)C_na:       0.00u       0.00s       0.00w      1 call
DFMP2 Aia Write:       0.00u       0.00s       0.00w      1 call
DFMP2 Qia   :       0.13u       0.05s       0.00w      1 call
DFMP2 Metric:       0.08u       0.00s       0.00w      1 call
DFMP2 Aia Read:       0.00u       0.00s       0.00w      1 call
DFMP2 (Q|A)(A|ia):       0.00u       0.00s       0.00w      1 call
DFMP2 Qia Write:       0.00u       0.00s       0.00w      1 call
DFMP2 Energy:       0.00u       0.00s       0.00w      1 call
DFMP2 Qia Read:       0.00u       0.00s       0.00w      2 calls

***********************************************************

Host: Kevins-MacBook-Pro.local

Timers On : Tue Dec 30 17:10:27 2014
Timers Off: Tue Dec 30 17:10:29 2014

Wall Time:        2.00 seconds

JK: (A|mn)  :       0.10u       0.00s       0.00w      3 calls
JK: (A|Q)^-1/2:       0.22u       0.00s       0.00w      3 calls
JK: (Q|mn)  :       0.00u       0.00s       0.00w      3 calls
Form H      :       0.00u       0.02s       0.00w      3 calls
Form S/X    :       0.00u       0.00s       0.00w      3 calls
Guess       :       0.00u       0.00s       0.00w      3 calls
Form G      :       0.07u       0.02s       0.00w     34 calls
JK: D       :       0.00u       0.00s       0.00w     34 calls
JK: USO2AO  :       0.00u       0.00s       0.00w     28 calls
JK: JK      :       0.02u       0.02s       0.00w     34 calls
JK: J       :       0.00u       0.00s       0.00w     28 calls
JK: J1      :       0.00u       0.00s       0.00w     28 calls
JK: J2      :       0.00u       0.00s       0.00w     28 calls
JK: K       :       0.00u       0.00s       0.00w     28 calls
JK: K1      :       0.00u       0.00s       0.00w     28 calls
JK: K2      :       0.00u       0.00s       0.00w     28 calls
JK: AO2USO  :       0.00u       0.00s       0.00w     28 calls
Form F      :       0.00u       0.00s       0.00w     34 calls
DIIS        :       0.03u       0.00s       0.00w     34 calls
DIISManager::add_entry:       0.02u       0.00s       0.00w     34 calls
Form C      :       0.00u       0.00s       0.00w     34 calls
Form D      :       0.00u       0.00s       0.00w     34 calls
DIISManager::extrapolate:       0.02u       0.00s       0.00w     31 calls
DIISManager::extrapolate: bMatrix setup:       0.00u       0.00s       0.00w     31 calls
DIISManager::extrapolate: bMatrix pseudoinverse:       0.02u       0.00s       0.00w     31 calls
DIISManager::extrapolate: form new data:       0.00u       0.00s       0.00w     31 calls
DFMP2 Singles:       0.00u       0.00s       0.00w      1 call
DFMP2 Aia   :       0.50u       0.32s       1.00w      1 call
DFMP2 (A|mn):       0.23u       0.20s       1.00w      1 call
DFMP2 (A|mn)C_mi:       0.00u       0.00s       0.00w      1 call
DFMP2 (A|mi)C_na:       0.00u       0.00s       0.00w      1 call
DFMP2 Aia Write:       0.00u       0.00s       0.00w      1 call
DFMP2 Qia   :       0.12u       0.05s       0.00w      1 call
DFMP2 Metric:       0.07u       0.00s       0.00w      1 call
DFMP2 Aia Read:       0.00u       0.00s       0.00w      1 call
DFMP2 (Q|A)(A|ia):       0.00u       0.00s       0.00w      1 call
DFMP2 Qia Write:       0.00u       0.00s       0.00w      1 call
DFMP2 Energy:       0.00u       0.00s       0.00w      1 call
DFMP2 Qia Read:       0.00u       0.00s       0.00w      2 calls

***********************************************************

Host: Kevins-MacBook-Pro.local

Timers On : Tue Dec 30 17:11:27 2014
Timers Off: Tue Dec 30 17:11:29 2014

Wall Time:        2.00 seconds

JK: (A|mn)  :       0.12u       0.00s       0.00w      3 calls
JK: (A|Q)^-1/2:       0.20u       0.00s       0.00w      3 calls
JK: (Q|mn)  :       0.00u       0.00s       0.00w      3 calls
Form H      :       0.02u       0.00s       0.00w      3 calls
Form S/X    :       0.00u       0.00s       0.00w      3 calls
Guess       :       0.00u       0.00s       0.00w      3 calls
Form G      :       0.08u       0.00s       0.00w     34 calls
JK: D       :       0.00u       0.00s       0.00w     34 calls
JK: USO2AO  :       0.00u       0.00s       0.00w     28 calls
JK: JK      :       0.03u       0.00s       0.00w     34 calls
JK: J       :       0.02u       0.00s       0.00w     28 calls
JK: J1      :       0.02u       0.00s       0.00w     28 calls
JK: J2      :       0.00u       0.00s       0.00w     28 calls
JK: K       :       0.02u       0.00s       0.00w     28 calls
JK: K1      :       0.02u       0.00s       0.00w     28 calls
JK: K2      :       0.00u       0.00s       0.00w     28 calls
JK: AO2USO  :       0.00u       0.00s       0.00w     28 calls
Form F      :       0.00u       0.00s       0.00w     34 calls
DIIS        :       0.02u       0.00s       0.00w     34 calls
DIISManager::add_entry:       0.00u       0.00s       0.00w     34 calls
Form C      :       0.00u       0.00s       0.00w     34 calls
Form D      :       0.00u       0.00s       0.00w     34 calls
DIISManager::extrapolate:       0.02u       0.00s       0.00w     31 calls
DIISManager::extrapolate: bMatrix setup:       0.00u       0.00s       0.00w     31 calls
DIISManager::extrapolate: bMatrix pseudoinverse:       0.02u       0.00s       0.00w     31 calls
DIISManager::extrapolate: form new data:       0.00u       0.00s       0.00w     31 calls
DFMP2 Singles:       0.00u       0.00s       0.00w      1 call
DFMP2 Aia   :       0.50u       0.32s       1.00w      1 call
DFMP2 (A|mn):       0.23u       0.22s       1.00w      1 call
DFMP2 (A|mn)C_mi:       0.02u       0.00s       0.00w      1 call
DFMP2 (A|mi)C_na:       0.00u       0.00s       0.00w      1 call
DFMP2 Aia Write:       0.00u       0.00s       0.00w      1 call
DFMP2 Qia   :       0.12u       0.05s       0.00w      1 call
DFMP2 Metric:       0.07u       0.00s       0.00w      1 call
DFMP2 Aia Read:       0.00u       0.00s       0.00w      1 call
DFMP2 (Q|A)(A|ia):       0.00u       0.00s       0.00w      1 call
DFMP2 Qia Write:       0.00u       0.00s       0.00w      1 call
DFMP2 Energy:       0.00u       0.00s       0.00w      1 call
DFMP2 Qia Read:       0.00u       0.00s       0.00w      2 calls

***********************************************************

Host: Kevins-MacBook-Pro.local

Timers On : Tue Dec 30 18:58:48 2014
Timers Off: Tue Dec 30 18:58:51 2014

Wall Time:        3.00 seconds

JK: (A|mn)  :       0.10u       0.00s       0.00w      3 calls
JK: (A|Q)^-1/2:       0.20u       0.00s       0.00w      3 calls
JK: (Q|mn)  :       0.00u       0.00s       0.00w      3 calls
Form H      :       0.02u       0.02s       0.00w      3 calls
Form S/X    :       0.00u       0.00s       0.00w      3 calls
Guess       :       0.00u       0.00s       0.00w      3 calls
Form G      :       0.08u       0.00s       0.00w     34 calls
JK: D       :       0.00u       0.00s       0.00w     34 calls
JK: USO2AO  :       0.00u       0.00s       0.00w     28 calls
JK: JK      :       0.03u       0.00s       0.00w     34 calls
JK: J       :       0.00u       0.00s       0.00w     28 calls
JK: J1      :       0.00u       0.00s       0.00w     28 calls
JK: J2      :       0.00u       0.00s       0.00w     28 calls
JK: K       :       0.02u       0.00s       0.00w     28 calls
JK: K1      :       0.02u       0.00s       0.00w     28 calls
JK: K2      :       0.00u       0.00s       0.00w     28 calls
JK: AO2USO  :       0.00u       0.00s       0.00w     28 calls
Form F      :       0.00u       0.00s       0.00w     34 calls
DIIS        :       0.02u       0.00s       0.00w     34 calls
DIISManager::add_entry:       0.00u       0.00s       0.00w     34 calls
Form C      :       0.02u       0.00s       0.00w     34 calls
Form D      :       0.00u       0.00s       0.00w     34 calls
DIISManager::extrapolate:       0.02u       0.00s       0.00w     31 calls
DIISManager::extrapolate: bMatrix setup:       0.00u       0.00s       0.00w     31 calls
DIISManager::extrapolate: bMatrix pseudoinverse:       0.00u       0.00s       0.00w     31 calls
DIISManager::extrapolate: form new data:       0.02u       0.00s       0.00w     31 calls
DFMP2 Singles:       0.00u       0.00s       0.00w      1 call
DFMP2 Aia   :       0.57u       0.37s       1.00w      1 call
DFMP2 (A|mn):       0.27u       0.23s       0.00w      1 call
DFMP2 (A|mn)C_mi:       0.00u       0.00s       0.00w      1 call
DFMP2 (A|mi)C_na:       0.00u       0.00s       0.00w      1 call
DFMP2 Aia Write:       0.00u       0.00s       0.00w      1 call
DFMP2 Qia   :       0.13u       0.05s       0.00w      1 call
DFMP2 Metric:       0.07u       0.00s       0.00w      1 call
DFMP2 Aia Read:       0.00u       0.00s       0.00w      1 call
DFMP2 (Q|A)(A|ia):       0.00u       0.00s       0.00w      1 call
DFMP2 Qia Write:       0.00u       0.00s       0.00w      1 call
DFMP2 Energy:       0.00u       0.00s       0.00w      1 call
DFMP2 Qia Read:       0.00u       0.00s       0.00w      2 calls

***********************************************************

Host: Kevins-MacBook-Pro.local

Timers On : Tue Dec 30 19:03:03 2014
Timers Off: Tue Dec 30 19:03:05 2014

Wall Time:        2.00 seconds

JK: (A|mn)  :       0.10u       0.00s       0.00w      3 calls
JK: (A|Q)^-1/2:       0.20u       0.00s       0.00w      3 calls
JK: (Q|mn)  :       0.00u       0.00s       0.00w      3 calls
Form H      :       0.00u       0.00s       0.00w      3 calls
Form S/X    :       0.00u       0.00s       0.00w      3 calls
Guess       :       0.02u       0.00s       0.00w      3 calls
Form G      :       0.08u       0.02s       0.00w     34 calls
JK: D       :       0.00u       0.00s       0.00w     34 calls
JK: USO2AO  :       0.00u       0.00s       0.00w     28 calls
JK: JK      :       0.03u       0.00s       0.00w     34 calls
JK: J       :       0.00u       0.00s       0.00w     28 calls
JK: J1      :       0.00u       0.00s       0.00w     28 calls
JK: J2      :       0.00u       0.00s       0.00w     28 calls
JK: K       :       0.02u       0.00s       0.00w     28 calls
JK: K1      :       0.00u       0.00s       0.00w     28 calls
JK: K2      :       0.02u       0.00s       0.00w     28 calls
JK: AO2USO  :       0.00u       0.00s       0.00w     28 calls
Form F      :       0.00u       0.00s       0.00w     34 calls
DIIS        :       0.03u       0.00s       0.00w     34 calls
DIISManager::add_entry:       0.02u       0.00s       0.00w     34 calls
Form C      :       0.02u       0.00s       0.00w     34 calls
Form D      :       0.00u       0.00s       0.00w     34 calls
DIISManager::extrapolate:       0.02u       0.00s       0.00w     31 calls
DIISManager::extrapolate: bMatrix setup:       0.00u       0.00s       0.00w     31 calls
DIISManager::extrapolate: bMatrix pseudoinverse:       0.00u       0.00s       0.00w     31 calls
DIISManager::extrapolate: form new data:       0.02u       0.00s       0.00w     31 calls
DFMP2 Singles:       0.00u       0.00s       0.00w      1 call
DFMP2 Aia   :       0.50u       0.32s       0.00w      1 call
DFMP2 (A|mn):       0.23u       0.22s       0.00w      1 call
DFMP2 (A|mn)C_mi:       0.02u       0.00s       0.00w      1 call
DFMP2 (A|mi)C_na:       0.00u       0.00s       0.00w      1 call
DFMP2 Aia Write:       0.00u       0.00s       0.00w      1 call
DFMP2 Qia   :       0.12u       0.05s       0.00w      1 call
DFMP2 Metric:       0.07u       0.00s       0.00w      1 call
DFMP2 Aia Read:       0.00u       0.00s       0.00w      1 call
DFMP2 (Q|A)(A|ia):       0.00u       0.00s       0.00w      1 call
DFMP2 Qia Write:       0.00u       0.00s       0.00w      1 call
DFMP2 Energy:       0.00u       0.00s       0.00w      1 call
DFMP2 Qia Read:       0.00u       0.00s       0.00w      2 calls

***********************************************************

Host: Kevins-MacBook-Pro.local

Timers On : Tue Dec 30 19:03:47 2014
Timers Off: Tue Dec 30 19:03:49 2014

Wall Time:        2.00 seconds

JK: (A|mn)  :       0.10u       0.00s       0.00w      3 calls
JK: (A|Q)^-1/2:       0.20u       0.00s       1.00w      3 calls
JK: (Q|mn)  :       0.00u       0.00s       0.00w      3 calls
Form H      :       0.02u       0.00s       0.00w      3 calls
Form S/X    :       0.02u       0.00s       0.00w      3 calls
Guess       :       0.00u       0.00s       0.00w      3 calls
Form G      :       0.05u       0.00s       0.00w     34 calls
JK: D       :       0.00u       0.00s       0.00w     34 calls
JK: USO2AO  :       0.00u       0.00s       0.00w     28 calls
JK: JK      :       0.00u       0.00s       0.00w     34 calls
JK: J       :       0.00u       0.00s       0.00w     28 calls
JK: J1      :       0.00u       0.00s       0.00w     28 calls
JK: J2      :       0.00u       0.00s       0.00w     28 calls
JK: K       :       0.00u       0.00s       0.00w     28 calls
JK: K1      :       0.00u       0.00s       0.00w     28 calls
JK: K2      :       0.00u       0.00s       0.00w     28 calls
JK: AO2USO  :       0.00u       0.00s       0.00w     28 calls
Form F      :       0.00u       0.00s       0.00w     34 calls
DIIS        :       0.00u       0.00s       0.00w     34 calls
DIISManager::add_entry:       0.00u       0.00s       0.00w     34 calls
Form C      :       0.03u       0.00s       0.00w     34 calls
Form D      :       0.00u       0.00s       0.00w     34 calls
DIISManager::extrapolate:       0.00u       0.00s       0.00w     31 calls
DIISManager::extrapolate: bMatrix setup:       0.00u       0.00s       0.00w     31 calls
DIISManager::extrapolate: bMatrix pseudoinverse:       0.00u       0.00s       0.00w     31 calls
DIISManager::extrapolate: form new data:       0.00u       0.00s       0.00w     31 calls
DFMP2 Singles:       0.00u       0.00s       0.00w      1 call
DFMP2 Aia   :       0.52u       0.33s       0.00w      1 call
DFMP2 (A|mn):       0.25u       0.22s       0.00w      1 call
DFMP2 (A|mn)C_mi:       0.00u       0.00s       0.00w      1 call
DFMP2 (A|mi)C_na:       0.00u       0.00s       0.00w      1 call
DFMP2 Aia Write:       0.00u       0.00s       0.00w      1 call
DFMP2 Qia   :       0.12u       0.05s       0.00w      1 call
DFMP2 Metric:       0.07u       0.00s       0.00w      1 call
DFMP2 Aia Read:       0.00u       0.00s       0.00w      1 call
DFMP2 (Q|A)(A|ia):       0.00u       0.00s       0.00w      1 call
DFMP2 Qia Write:       0.00u       0.00s       0.00w      1 call
DFMP2 Energy:       0.02u       0.00s       0.00w      1 call
DFMP2 Qia Read:       0.00u       0.00s       0.00w      2 calls

***********************************************************

Host: Kevins-MacBook-Pro.local

Timers On : Tue Dec 30 23:59:27 2014
Timers Off: Tue Dec 30 23:59:30 2014

Wall Time:        3.00 seconds

JK: (A|mn)  :       0.12u       0.00s       0.00w      3 calls
JK: (A|Q)^-1/2:       0.20u       0.00s       0.00w      3 calls
JK: (Q|mn)  :       0.00u       0.00s       0.00w      3 calls
Form H      :       0.00u       0.00s       0.00w      3 calls
Form S/X    :       0.00u       0.00s       0.00w      3 calls
Guess       :       0.00u       0.00s       0.00w      3 calls
Form G      :       0.10u       0.00s       0.00w     34 calls
JK: D       :       0.00u       0.00s       0.00w     34 calls
JK: USO2AO  :       0.00u       0.00s       0.00w     28 calls
JK: JK      :       0.03u       0.00s       0.00w     34 calls
JK: J       :       0.00u       0.00s       0.00w     28 calls
JK: J1      :       0.00u       0.00s       0.00w     28 calls
JK: J2      :       0.00u       0.00s       0.00w     28 calls
JK: K       :       0.02u       0.00s       0.00w     28 calls
JK: K1      :       0.02u       0.00s       0.00w     28 calls
JK: K2      :       0.00u       0.00s       0.00w     28 calls
JK: AO2USO  :       0.00u       0.00s       0.00w     28 calls
Form F      :       0.00u       0.00s       0.00w     34 calls
DIIS        :       0.03u       0.00s       0.00w     34 calls
DIISManager::add_entry:       0.00u       0.00s       0.00w     34 calls
Form C      :       0.00u       0.00s       0.00w     34 calls
Form D      :       0.00u       0.00s       0.00w     34 calls
DIISManager::extrapolate:       0.03u       0.00s       0.00w     31 calls
DIISManager::extrapolate: bMatrix setup:       0.00u       0.00s       0.00w     31 calls
DIISManager::extrapolate: bMatrix pseudoinverse:       0.02u       0.00s       0.00w     31 calls
DIISManager::extrapolate: form new data:       0.02u       0.00s       0.00w     31 calls
DFMP2 Singles:       0.00u       0.00s       0.00w      1 call
DFMP2 Aia   :       0.52u       0.33s       1.00w      1 call
DFMP2 (A|mn):       0.25u       0.22s       0.00w      1 call
DFMP2 (A|mn)C_mi:       0.00u       0.00s       0.00w      1 call
DFMP2 (A|mi)C_na:       0.00u       0.00s       0.00w      1 call
DFMP2 Aia Write:       0.00u       0.00s       0.00w      1 call
DFMP2 Qia   :       0.12u       0.05s       0.00w      1 call
DFMP2 Metric:       0.07u       0.00s       0.00w      1 call
DFMP2 Aia Read:       0.00u       0.00s       0.00w      1 call
DFMP2 (Q|A)(A|ia):       0.00u       0.00s       0.00w      1 call
DFMP2 Qia Write:       0.00u       0.00s       0.00w      1 call
DFMP2 Energy:       0.00u       0.00s       0.00w      1 call
DFMP2 Qia Read:       0.00u       0.00s       0.00w      2 calls

***********************************************************

Host: Kevins-MacBook-Pro.local

Timers On : Wed Dec 31 00:09:23 2014
Timers Off: Wed Dec 31 00:09:30 2014

Wall Time:        7.00 seconds

JK: (A|mn)  :       0.10u       0.00s       0.00w      3 calls
JK: (A|Q)^-1/2:       0.22u       0.00s       0.00w      3 calls
JK: (Q|mn)  :       0.00u       0.00s       0.00w      3 calls
Form H      :       0.00u       0.00s       0.00w      3 calls
Form S/X    :       0.00u       0.00s       0.00w      3 calls
Guess       :       0.00u       0.00s       0.00w      3 calls
Form G      :       0.07u       0.00s       0.00w     34 calls
JK: D       :       0.00u       0.00s       0.00w     34 calls
JK: USO2AO  :       0.00u       0.00s       0.00w     28 calls
JK: JK      :       0.02u       0.00s       0.00w     34 calls
JK: J       :       0.00u       0.00s       0.00w     28 calls
JK: J1      :       0.00u       0.00s       0.00w     28 calls
JK: J2      :       0.00u       0.00s       0.00w     28 calls
JK: K       :       0.02u       0.00s       0.00w     28 calls
JK: K1      :       0.02u       0.00s       0.00w     28 calls
JK: K2      :       0.00u       0.00s       0.00w     28 calls
JK: AO2USO  :       0.00u       0.00s       0.00w     28 calls
Form F      :       0.00u       0.00s       0.00w     34 calls
DIIS        :       0.02u       0.00s       0.00w     34 calls
DIISManager::add_entry:       0.02u       0.00s       0.00w     34 calls
Form C      :       0.03u       0.00s       0.00w     34 calls
Form D      :       0.00u       0.00s       0.00w     34 calls
DIISManager::extrapolate:       0.00u       0.00s       0.00w     31 calls
DIISManager::extrapolate: bMatrix setup:       0.00u       0.00s       0.00w     31 calls
DIISManager::extrapolate: bMatrix pseudoinverse:       0.00u       0.00s       0.00w     31 calls
DIISManager::extrapolate: form new data:       0.00u       0.00s       0.00w     31 calls
DFMP2 Singles:       0.00u       0.00s       0.00w      1 call
DFMP2 Aia   :       0.53u       0.35s       0.00w      1 call
DFMP2 (A|mn):       0.27u       0.22s       0.00w      1 call
DFMP2 (A|mn)C_mi:       0.00u       0.00s       0.00w      1 call
DFMP2 (A|mi)C_na:       0.00u       0.00s       0.00w      1 call
DFMP2 Aia Write:       0.00u       0.00s       0.00w      1 call
DFMP2 Qia   :       0.12u       0.05s       0.00w      1 call
DFMP2 Metric:       0.07u       0.00s       0.00w      1 call
DFMP2 Aia Read:       0.00u       0.00s       0.00w      1 call
DFMP2 (Q|A)(A|ia):       0.00u       0.00s       0.00w      1 call
DFMP2 Qia Write:       0.00u       0.00s       0.00w      1 call
DFMP2 Energy:       0.00u       0.00s       0.00w      1 call
DFMP2 Qia Read:       0.00u       0.00s       0.00w      2 calls

***********************************************************

Host: Kevins-MacBook-Pro.local

Timers On : Wed Dec 31 00:10:35 2014
Timers Off: Wed Dec 31 00:10:37 2014

Wall Time:        2.00 seconds

JK: (A|mn)  :       0.00u       0.00s       0.00w      3 calls
JK: (A|Q)^-1/2:       0.15u       0.00s       0.00w      3 calls
JK: (Q|mn)  :       0.00u       0.00s       0.00w      3 calls
Form H      :       0.00u       0.00s       0.00w      3 calls
Form S/X    :       0.00u       0.00s       0.00w      3 calls
Guess       :       0.00u       0.00s       0.00w      3 calls
Form G      :       0.07u       0.00s       0.00w     18 calls
JK: D       :       0.00u       0.00s       0.00w     18 calls
JK: USO2AO  :       0.00u       0.00s       0.00w     15 calls
JK: JK      :       0.00u       0.00s       0.00w     18 calls
JK: J       :       0.00u       0.00s       0.00w     15 calls
JK: J1      :       0.00u       0.00s       0.00w     15 calls
JK: J2      :       0.00u       0.00s       0.00w     15 calls
JK: K       :       0.00u       0.00s       0.00w     15 calls
JK: K1      :       0.00u       0.00s       0.00w     15 calls
JK: K2      :       0.00u       0.00s       0.00w     15 calls
JK: AO2USO  :       0.00u       0.00s       0.00w     15 calls
Form F      :       0.00u       0.00s       0.00w     18 calls
DIIS        :       0.00u       0.00s       0.00w     18 calls
DIISManager::add_entry:       0.00u       0.00s       0.00w     18 calls
Form C      :       0.00u       0.00s       0.00w     18 calls
Form D      :       0.00u       0.00s       0.00w     18 calls
DIISManager::extrapolate:       0.00u       0.00s       0.00w     15 calls
DIISManager::extrapolate: bMatrix setup:       0.00u       0.00s       0.00w     15 calls
DIISManager::extrapolate: bMatrix pseudoinverse:       0.00u       0.00s       0.00w     15 calls
DIISManager::extrapolate: form new data:       0.00u       0.00s       0.00w     15 calls
DFMP2 Singles:       0.00u       0.00s       0.00w      1 call
DFMP2 Aia   :       0.10u       0.00s       0.00w      1 call
DFMP2 (A|mn):       0.00u       0.00s       0.00w      1 call
DFMP2 (A|mn)C_mi:       0.00u       0.00s       0.00w      1 call
DFMP2 (A|mi)C_na:       0.00u       0.00s       0.00w      1 call
DFMP2 Aia Write:       0.00u       0.00s       0.00w      1 call
DFMP2 Qia   :       0.05u       0.00s       0.00w      1 call
DFMP2 Metric:       0.05u       0.00s       0.00w      1 call
DFMP2 Aia Read:       0.00u       0.00s       0.00w      1 call
DFMP2 (Q|A)(A|ia):       0.00u       0.00s       0.00w      1 call
DFMP2 Qia Write:       0.00u       0.00s       0.00w      1 call
DFMP2 Energy:       0.00u       0.00s       0.00w      1 call
DFMP2 Qia Read:       0.00u       0.00s       0.00w      2 calls

***********************************************************

Host: Kevins-MacBook-Pro.local

Timers On : Wed Dec 31 00:16:42 2014
Timers Off: Wed Dec 31 00:16:43 2014

Wall Time:        1.00 seconds

JK: (A|mn)  :       0.00u       0.00s       0.00w      3 calls
JK: (A|Q)^-1/2:       0.15u       0.00s       0.00w      3 calls
JK: (Q|mn)  :       0.00u       0.00s       0.00w      3 calls
Form H      :       0.00u       0.00s       0.00w      3 calls
Form S/X    :       0.00u       0.00s       0.00w      3 calls
Guess       :       0.00u       0.00s       0.00w      3 calls
Form G      :       0.05u       0.00s       0.00w     18 calls
JK: D       :       0.00u       0.00s       0.00w     18 calls
JK: USO2AO  :       0.00u       0.00s       0.00w     15 calls
JK: JK      :       0.00u       0.00s       0.00w     18 calls
JK: J       :       0.00u       0.00s       0.00w     15 calls
JK: J1      :       0.00u       0.00s       0.00w     15 calls
JK: J2      :       0.00u       0.00s       0.00w     15 calls
JK: K       :       0.00u       0.00s       0.00w     15 calls
JK: K1      :       0.00u       0.00s       0.00w     15 calls
JK: K2      :       0.00u       0.00s       0.00w     15 calls
JK: AO2USO  :       0.00u       0.00s       0.00w     15 calls
Form F      :       0.00u       0.00s       0.00w     18 calls
DIIS        :       0.00u       0.00s       0.00w     18 calls
DIISManager::add_entry:       0.00u       0.00s       0.00w     18 calls
Form C      :       0.00u       0.00s       0.00w     18 calls
Form D      :       0.00u       0.00s       0.00w     18 calls
DIISManager::extrapolate:       0.00u       0.00s       0.00w     15 calls
DIISManager::extrapolate: bMatrix setup:       0.00u       0.00s       0.00w     15 calls
DIISManager::extrapolate: bMatrix pseudoinverse:       0.00u       0.00s       0.00w     15 calls
DIISManager::extrapolate: form new data:       0.00u       0.00s       0.00w     15 calls
DFMP2 Singles:       0.00u       0.00s       0.00w      1 call
DFMP2 Aia   :       0.10u       0.00s       1.00w      1 call
DFMP2 (A|mn):       0.00u       0.00s       0.00w      1 call
DFMP2 (A|mn)C_mi:       0.00u       0.00s       0.00w      1 call
DFMP2 (A|mi)C_na:       0.00u       0.00s       0.00w      1 call
DFMP2 Aia Write:       0.00u       0.00s       0.00w      1 call
DFMP2 Qia   :       0.05u       0.00s       0.00w      1 call
DFMP2 Metric:       0.05u       0.00s       0.00w      1 call
DFMP2 Aia Read:       0.00u       0.00s       0.00w      1 call
DFMP2 (Q|A)(A|ia):       0.00u       0.00s       0.00w      1 call
DFMP2 Qia Write:       0.00u       0.00s       0.00w      1 call
DFMP2 Energy:       0.00u       0.00s       0.00w      1 call
DFMP2 Qia Read:       0.00u       0.00s       0.00w      2 calls

***********************************************************

Host: Kevins-MacBook-Pro.local

Timers On : Wed Dec 31 00:18:15 2014
Timers Off: Wed Dec 31 00:18:16 2014

Wall Time:        1.00 seconds

JK: (A|mn)  :       0.02u       0.00s       0.00w      3 calls
JK: (A|Q)^-1/2:       0.13u       0.00s       0.00w      3 calls
JK: (Q|mn)  :       0.00u       0.00s       0.00w      3 calls
Form H      :       0.00u       0.00s       0.00w      3 calls
Form S/X    :       0.00u       0.00s       0.00w      3 calls
Guess       :       0.00u       0.00s       0.00w      3 calls
Form G      :       0.05u       0.00s       0.00w     18 calls
JK: D       :       0.00u       0.00s       0.00w     18 calls
JK: USO2AO  :       0.00u       0.00s       0.00w     15 calls
JK: JK      :       0.00u       0.00s       0.00w     18 calls
JK: J       :       0.00u       0.00s       0.00w     15 calls
JK: J1      :       0.00u       0.00s       0.00w     15 calls
JK: J2      :       0.00u       0.00s       0.00w     15 calls
JK: K       :       0.00u       0.00s       0.00w     15 calls
JK: K1      :       0.00u       0.00s       0.00w     15 calls
JK: K2      :       0.00u       0.00s       0.00w     15 calls
JK: AO2USO  :       0.00u       0.00s       0.00w     15 calls
Form F      :       0.00u       0.00s       0.00w     18 calls
DIIS        :       0.00u       0.00s       0.00w     18 calls
DIISManager::add_entry:       0.00u       0.00s       0.00w     18 calls
Form C      :       0.02u       0.00s       0.00w     18 calls
Form D      :       0.00u       0.00s       0.00w     18 calls
DIISManager::extrapolate:       0.00u       0.00s       0.00w     15 calls
DIISManager::extrapolate: bMatrix setup:       0.00u       0.00s       0.00w     15 calls
DIISManager::extrapolate: bMatrix pseudoinverse:       0.00u       0.00s       0.00w     15 calls
DIISManager::extrapolate: form new data:       0.00u       0.00s       0.00w     15 calls
DFMP2 Singles:       0.00u       0.00s       0.00w      1 call
DFMP2 Aia   :       0.10u       0.00s       0.00w      1 call
DFMP2 (A|mn):       0.02u       0.00s       0.00w      1 call
DFMP2 (A|mn)C_mi:       0.00u       0.00s       0.00w      1 call
DFMP2 (A|mi)C_na:       0.00u       0.00s       0.00w      1 call
DFMP2 Aia Write:       0.00u       0.00s       0.00w      1 call
DFMP2 Qia   :       0.05u       0.02s       0.00w      1 call
DFMP2 Metric:       0.05u       0.00s       0.00w      1 call
DFMP2 Aia Read:       0.00u       0.00s       0.00w      1 call
DFMP2 (Q|A)(A|ia):       0.00u       0.00s       0.00w      1 call
DFMP2 Qia Write:       0.00u       0.00s       0.00w      1 call
DFMP2 Energy:       0.00u       0.00s       0.00w      1 call
DFMP2 Qia Read:       0.00u       0.00s       0.00w      2 calls

***********************************************************

Host: Kevins-MacBook-Pro.local

Timers On : Wed Dec 31 00:18:30 2014
Timers Off: Wed Dec 31 00:18:31 2014

Wall Time:        1.00 seconds

JK: (A|mn)  :       0.00u       0.00s       0.00w      3 calls
JK: (A|Q)^-1/2:       0.13u       0.00s       0.00w      3 calls
JK: (Q|mn)  :       0.00u       0.00s       0.00w      3 calls
Form H      :       0.00u       0.00s       0.00w      3 calls
Form S/X    :       0.00u       0.00s       0.00w      3 calls
Guess       :       0.00u       0.00s       0.00w      3 calls
Form G      :       0.03u       0.02s       0.00w     18 calls
JK: D       :       0.00u       0.00s       0.00w     18 calls
JK: USO2AO  :       0.00u       0.00s       0.00w     15 calls
JK: JK      :       0.00u       0.02s       0.00w     18 calls
JK: J       :       0.00u       0.00s       0.00w     15 calls
JK: J1      :       0.00u       0.00s       0.00w     15 calls
JK: J2      :       0.00u       0.00s       0.00w     15 calls
JK: K       :       0.00u       0.00s       0.00w     15 calls
JK: K1      :       0.00u       0.00s       0.00w     15 calls
JK: K2      :       0.00u       0.00s       0.00w     15 calls
JK: AO2USO  :       0.00u       0.00s       0.00w     15 calls
Form F      :       0.00u       0.00s       0.00w     18 calls
DIIS        :       0.00u       0.00s       0.00w     18 calls
DIISManager::add_entry:       0.00u       0.00s       0.00w     18 calls
Form C      :       0.00u       0.00s       0.00w     18 calls
Form D      :       0.00u       0.00s       0.00w     18 calls
DIISManager::extrapolate:       0.00u       0.00s       0.00w     15 calls
DIISManager::extrapolate: bMatrix setup:       0.00u       0.00s       0.00w     15 calls
DIISManager::extrapolate: bMatrix pseudoinverse:       0.00u       0.00s       0.00w     15 calls
DIISManager::extrapolate: form new data:       0.00u       0.00s       0.00w     15 calls
DFMP2 Singles:       0.00u       0.00s       0.00w      1 call
DFMP2 Aia   :       0.10u       0.00s       0.00w      1 call
DFMP2 (A|mn):       0.02u       0.00s       0.00w      1 call
DFMP2 (A|mn)C_mi:       0.00u       0.00s       0.00w      1 call
DFMP2 (A|mi)C_na:       0.00u       0.00s       0.00w      1 call
DFMP2 Aia Write:       0.00u       0.00s       0.00w      1 call
DFMP2 Qia   :       0.05u       0.00s       0.00w      1 call
DFMP2 Metric:       0.05u       0.00s       0.00w      1 call
DFMP2 Aia Read:       0.00u       0.00s       0.00w      1 call
DFMP2 (Q|A)(A|ia):       0.00u       0.00s       0.00w      1 call
DFMP2 Qia Write:       0.00u       0.00s       0.00w      1 call
DFMP2 Energy:       0.00u       0.02s       0.00w      1 call
DFMP2 Qia Read:       0.00u       0.00s       0.00w      2 calls

***********************************************************

Host: Kevins-MacBook-Pro.local

Timers On : Wed Dec 31 00:19:46 2014
Timers Off: Wed Dec 31 00:19:47 2014

Wall Time:        1.00 seconds

JK: (A|mn)  :       0.00u       0.00s       0.00w      3 calls
JK: (A|Q)^-1/2:       0.10u       0.00s       0.00w      3 calls
JK: (Q|mn)  :       0.00u       0.00s       0.00w      3 calls
Form H      :       0.00u       0.00s       0.00w      3 calls
Form S/X    :       0.00u       0.00s       0.00w      3 calls
Guess       :       0.00u       0.00s       0.00w      3 calls
Form G      :       0.07u       0.00s       0.00w     18 calls
JK: D       :       0.00u       0.00s       0.00w     18 calls
JK: USO2AO  :       0.00u       0.00s       0.00w     15 calls
JK: JK      :       0.00u       0.00s       0.00w     18 calls
JK: J       :       0.00u       0.00s       0.00w     15 calls
JK: J1      :       0.00u       0.00s       0.00w     15 calls
JK: J2      :       0.00u       0.00s       0.00w     15 calls
JK: K       :       0.00u       0.00s       0.00w     15 calls
JK: K1      :       0.00u       0.00s       0.00w     15 calls
JK: K2      :       0.00u       0.00s       0.00w     15 calls
JK: AO2USO  :       0.00u       0.00s       0.00w     15 calls
Form F      :       0.00u       0.00s       0.00w     18 calls
DIIS        :       0.00u       0.00s       1.00w     18 calls
DIISManager::add_entry:       0.00u       0.00s       0.00w     18 calls
Form C      :       0.00u       0.00s       0.00w     18 calls
Form D      :       0.00u       0.00s       0.00w     18 calls
DIISManager::extrapolate:       0.00u       0.00s       1.00w     15 calls
DIISManager::extrapolate: bMatrix setup:       0.00u       0.00s       0.00w     15 calls
DIISManager::extrapolate: bMatrix pseudoinverse:       0.00u       0.00s       0.00w     15 calls
DIISManager::extrapolate: form new data:       0.00u       0.00s       0.00w     15 calls
DFMP2 Singles:       0.00u       0.00s       0.00w      1 call
DFMP2 Aia   :       0.10u       0.00s       0.00w      1 call
DFMP2 (A|mn):       0.02u       0.00s       0.00w      1 call
DFMP2 (A|mn)C_mi:       0.00u       0.00s       0.00w      1 call
DFMP2 (A|mi)C_na:       0.00u       0.00s       0.00w      1 call
DFMP2 Aia Write:       0.00u       0.00s       0.00w      1 call
DFMP2 Qia   :       0.05u       0.00s       0.00w      1 call
DFMP2 Metric:       0.05u       0.00s       0.00w      1 call
DFMP2 Aia Read:       0.00u       0.00s       0.00w      1 call
DFMP2 (Q|A)(A|ia):       0.00u       0.00s       0.00w      1 call
DFMP2 Qia Write:       0.00u       0.00s       0.00w      1 call
DFMP2 Energy:       0.00u       0.00s       0.00w      1 call
DFMP2 Qia Read:       0.00u       0.00s       0.00w      2 calls

***********************************************************

Host: Kevins-MacBook-Pro.local

Timers On : Wed Dec 31 00:23:37 2014
Timers Off: Wed Dec 31 00:23:38 2014

Wall Time:        1.00 seconds

JK: (A|mn)  :       0.00u       0.00s       0.00w      3 calls
JK: (A|Q)^-1/2:       0.15u       0.00s       0.00w      3 calls
JK: (Q|mn)  :       0.00u       0.00s       0.00w      3 calls
Form H      :       0.00u       0.02s       0.00w      3 calls
Form S/X    :       0.00u       0.00s       0.00w      3 calls
Guess       :       0.00u       0.00s       0.00w      3 calls
Form G      :       0.07u       0.00s       0.00w     18 calls
JK: D       :       0.00u       0.00s       0.00w     18 calls
JK: USO2AO  :       0.00u       0.00s       0.00w     15 calls
JK: JK      :       0.00u       0.00s       0.00w     18 calls
JK: J       :       0.00u       0.00s       0.00w     15 calls
JK: J1      :       0.00u       0.00s       0.00w     15 calls
JK: J2      :       0.00u       0.00s       0.00w     15 calls
JK: K       :       0.00u       0.00s       0.00w     15 calls
JK: K1      :       0.00u       0.00s       0.00w     15 calls
JK: K2      :       0.00u       0.00s       0.00w     15 calls
JK: AO2USO  :       0.00u       0.00s       0.00w     15 calls
Form F      :       0.00u       0.00s       0.00w     18 calls
DIIS        :       0.00u       0.00s       0.00w     18 calls
DIISManager::add_entry:       0.00u       0.00s       0.00w     18 calls
Form C      :       0.00u       0.00s       0.00w     18 calls
Form D      :       0.00u       0.00s       0.00w     18 calls
DIISManager::extrapolate:       0.00u       0.00s       0.00w     15 calls
DIISManager::extrapolate: bMatrix setup:       0.00u       0.00s       0.00w     15 calls
DIISManager::extrapolate: bMatrix pseudoinverse:       0.00u       0.00s       0.00w     15 calls
DIISManager::extrapolate: form new data:       0.00u       0.00s       0.00w     15 calls
DFMP2 Singles:       0.00u       0.00s       0.00w      1 call
DFMP2 Aia   :       0.08u       0.00s       0.00w      1 call
DFMP2 (A|mn):       0.00u       0.00s       0.00w      1 call
DFMP2 (A|mn)C_mi:       0.00u       0.00s       0.00w      1 call
DFMP2 (A|mi)C_na:       0.00u       0.00s       0.00w      1 call
DFMP2 Aia Write:       0.00u       0.00s       0.00w      1 call
DFMP2 Qia   :       0.05u       0.00s       0.00w      1 call
DFMP2 Metric:       0.05u       0.00s       0.00w      1 call
DFMP2 Aia Read:       0.00u       0.00s       0.00w      1 call
DFMP2 (Q|A)(A|ia):       0.00u       0.00s       0.00w      1 call
DFMP2 Qia Write:       0.00u       0.00s       0.00w      1 call
DFMP2 Energy:       0.00u       0.00s       0.00w      1 call
DFMP2 Qia Read:       0.00u       0.00s       0.00w      2 calls

***********************************************************

Host: Kevins-MacBook-Pro.local

Timers On : Wed Dec 31 00:28:53 2014
Timers Off: Wed Dec 31 00:28:54 2014

Wall Time:        1.00 seconds

JK: (A|mn)  :       0.02u       0.00s       0.00w      3 calls
JK: (A|Q)^-1/2:       0.13u       0.00s       0.00w      3 calls
JK: (Q|mn)  :       0.00u       0.00s       0.00w      3 calls
Form H      :       0.00u       0.00s       0.00w      3 calls
Form S/X    :       0.00u       0.00s       0.00w      3 calls
Guess       :       0.00u       0.00s       0.00w      3 calls
Form G      :       0.07u       0.00s       0.00w     18 calls
JK: D       :       0.00u       0.00s       0.00w     18 calls
JK: USO2AO  :       0.00u       0.00s       0.00w     15 calls
JK: JK      :       0.00u       0.00s       0.00w     18 calls
JK: J       :       0.00u       0.00s       0.00w     15 calls
JK: J1      :       0.00u       0.00s       0.00w     15 calls
JK: J2      :       0.00u       0.00s       0.00w     15 calls
JK: K       :       0.00u       0.00s       0.00w     15 calls
JK: K1      :       0.00u       0.00s       0.00w     15 calls
JK: K2      :       0.00u       0.00s       0.00w     15 calls
JK: AO2USO  :       0.00u       0.00s       0.00w     15 calls
Form F      :       0.00u       0.00s       0.00w     18 calls
DIIS        :       0.00u       0.00s       0.00w     18 calls
DIISManager::add_entry:       0.00u       0.00s       0.00w     18 calls
Form C      :       0.00u       0.00s       0.00w     18 calls
Form D      :       0.00u       0.00s       0.00w     18 calls
DIISManager::extrapolate:       0.00u       0.00s       0.00w     15 calls
DIISManager::extrapolate: bMatrix setup:       0.00u       0.00s       0.00w     15 calls
DIISManager::extrapolate: bMatrix pseudoinverse:       0.00u       0.00s       0.00w     15 calls
DIISManager::extrapolate: form new data:       0.00u       0.00s       0.00w     15 calls
DFMP2 Singles:       0.00u       0.00s       0.00w      1 call
DFMP2 Aia   :       0.10u       0.00s       0.00w      1 call
DFMP2 (A|mn):       0.02u       0.00s       0.00w      1 call
DFMP2 (A|mn)C_mi:       0.00u       0.00s       0.00w      1 call
DFMP2 (A|mi)C_na:       0.00u       0.00s       0.00w      1 call
DFMP2 Aia Write:       0.00u       0.00s       0.00w      1 call
DFMP2 Qia   :       0.05u       0.00s       0.00w      1 call
DFMP2 Metric:       0.05u       0.00s       0.00w      1 call
DFMP2 Aia Read:       0.00u       0.00s       0.00w      1 call
DFMP2 (Q|A)(A|ia):       0.00u       0.00s       0.00w      1 call
DFMP2 Qia Write:       0.00u       0.00s       0.00w      1 call
DFMP2 Energy:       0.00u       0.00s       0.00w      1 call
DFMP2 Qia Read:       0.00u       0.00s       0.00w      2 calls

***********************************************************

Host: Kevins-MacBook-Pro.local

Timers On : Wed Dec 31 00:29:57 2014
Timers Off: Wed Dec 31 00:29:58 2014

Wall Time:        1.00 seconds

JK: (A|mn)  :       0.00u       0.00s       0.00w      3 calls
JK: (A|Q)^-1/2:       0.13u       0.02s       0.00w      3 calls
JK: (Q|mn)  :       0.00u       0.00s       0.00w      3 calls
Form H      :       0.02u       0.00s       0.00w      3 calls
Form S/X    :       0.00u       0.00s       0.00w      3 calls
Guess       :       0.00u       0.00s       0.00w      3 calls
Form G      :       0.03u       0.00s       0.00w     18 calls
JK: D       :       0.00u       0.00s       0.00w     18 calls
JK: USO2AO  :       0.00u       0.00s       0.00w     15 calls
JK: JK      :       0.00u       0.00s       0.00w     18 calls
JK: J       :       0.00u       0.00s       0.00w     15 calls
JK: J1      :       0.00u       0.00s       0.00w     15 calls
JK: J2      :       0.00u       0.00s       0.00w     15 calls
JK: K       :       0.00u       0.00s       0.00w     15 calls
JK: K1      :       0.00u       0.00s       0.00w     15 calls
JK: K2      :       0.00u       0.00s       0.00w     15 calls
JK: AO2USO  :       0.00u       0.00s       0.00w     15 calls
Form F      :       0.00u       0.00s       0.00w     18 calls
DIIS        :       0.00u       0.00s       0.00w     18 calls
DIISManager::add_entry:       0.00u       0.00s       0.00w     18 calls
Form C      :       0.00u       0.00s       0.00w     18 calls
Form D      :       0.00u       0.00s       0.00w     18 calls
DIISManager::extrapolate:       0.00u       0.00s       0.00w     15 calls
DIISManager::extrapolate: bMatrix setup:       0.00u       0.00s       0.00w     15 calls
DIISManager::extrapolate: bMatrix pseudoinverse:       0.00u       0.00s       0.00w     15 calls
DIISManager::extrapolate: form new data:       0.00u       0.00s       0.00w     15 calls
DFMP2 Singles:       0.00u       0.00s       0.00w      1 call
DFMP2 Aia   :       0.10u       0.00s       0.00w      1 call
DFMP2 (A|mn):       0.02u       0.00s       0.00w      1 call
DFMP2 (A|mn)C_mi:       0.00u       0.00s       0.00w      1 call
DFMP2 (A|mi)C_na:       0.00u       0.00s       0.00w      1 call
DFMP2 Aia Write:       0.00u       0.00s       0.00w      1 call
DFMP2 Qia   :       0.05u       0.00s       0.00w      1 call
DFMP2 Metric:       0.05u       0.00s       0.00w      1 call
DFMP2 Aia Read:       0.00u       0.00s       0.00w      1 call
DFMP2 (Q|A)(A|ia):       0.00u       0.00s       0.00w      1 call
DFMP2 Qia Write:       0.00u       0.00s       0.00w      1 call
DFMP2 Energy:       0.00u       0.00s       0.00w      1 call
DFMP2 Qia Read:       0.00u       0.00s       0.00w      2 calls

***********************************************************

Host: Kevins-MacBook-Pro.local

Timers On : Wed Dec 31 00:36:54 2014
Timers Off: Wed Dec 31 00:36:55 2014

Wall Time:        1.00 seconds

JK: (A|mn)  :       0.00u       0.00s       0.00w      3 calls
JK: (A|Q)^-1/2:       0.15u       0.00s       0.00w      3 calls
JK: (Q|mn)  :       0.00u       0.00s       0.00w      3 calls
Form H      :       0.00u       0.00s       0.00w      3 calls
Form S/X    :       0.00u       0.00s       0.00w      3 calls
Guess       :       0.00u       0.00s       0.00w      3 calls
Form G      :       0.07u       0.00s       0.00w     18 calls
JK: D       :       0.00u       0.00s       0.00w     18 calls
JK: USO2AO  :       0.00u       0.00s       0.00w     15 calls
JK: JK      :       0.00u       0.00s       0.00w     18 calls
JK: J       :       0.00u       0.00s       0.00w     15 calls
JK: J1      :       0.00u       0.00s       0.00w     15 calls
JK: J2      :       0.00u       0.00s       0.00w     15 calls
JK: K       :       0.00u       0.00s       0.00w     15 calls
JK: K1      :       0.00u       0.00s       0.00w     15 calls
JK: K2      :       0.00u       0.00s       0.00w     15 calls
JK: AO2USO  :       0.00u       0.00s       0.00w     15 calls
Form F      :       0.00u       0.00s       0.00w     18 calls
DIIS        :       0.00u       0.00s       0.00w     18 calls
DIISManager::add_entry:       0.00u       0.00s       0.00w     18 calls
Form C      :       0.00u       0.00s       0.00w     18 calls
Form D      :       0.00u       0.00s       0.00w     18 calls
DIISManager::extrapolate:       0.00u       0.00s       0.00w     15 calls
DIISManager::extrapolate: bMatrix setup:       0.00u       0.00s       0.00w     15 calls
DIISManager::extrapolate: bMatrix pseudoinverse:       0.00u       0.00s       0.00w     15 calls
DIISManager::extrapolate: form new data:       0.00u       0.00s       0.00w     15 calls
DFMP2 Singles:       0.00u       0.00s       0.00w      1 call
DFMP2 Aia   :       0.08u       0.00s       0.00w      1 call
DFMP2 (A|mn):       0.00u       0.00s       0.00w      1 call
DFMP2 (A|mn)C_mi:       0.00u       0.00s       0.00w      1 call
DFMP2 (A|mi)C_na:       0.00u       0.00s       0.00w      1 call
DFMP2 Aia Write:       0.00u       0.00s       0.00w      1 call
DFMP2 Qia   :       0.07u       0.00s       0.00w      1 call
DFMP2 Metric:       0.07u       0.00s       0.00w      1 call
DFMP2 Aia Read:       0.00u       0.00s       0.00w      1 call
DFMP2 (Q|A)(A|ia):       0.00u       0.00s       0.00w      1 call
DFMP2 Qia Write:       0.00u       0.00s       0.00w      1 call
DFMP2 Energy:       0.00u       0.00s       0.00w      1 call
DFMP2 Qia Read:       0.00u       0.00s       0.00w      2 calls

***********************************************************

Host: Kevins-MacBook-Pro.local

Timers On : Wed Dec 31 00:40:30 2014
Timers Off: Wed Dec 31 00:40:31 2014

Wall Time:        1.00 seconds

JK: (A|mn)  :       0.00u       0.00s       0.00w      3 calls
JK: (A|Q)^-1/2:       0.15u       0.00s       1.00w      3 calls
JK: (Q|mn)  :       0.00u       0.00s       0.00w      3 calls
Form H      :       0.00u       0.00s       0.00w      3 calls
Form S/X    :       0.00u       0.00s       0.00w      3 calls
Guess       :       0.00u       0.00s       0.00w      3 calls
Form G      :       0.03u       0.02s       0.00w     18 calls
JK: D       :       0.00u       0.00s       0.00w     18 calls
JK: USO2AO  :       0.00u       0.00s       0.00w     15 calls
JK: JK      :       0.00u       0.00s       0.00w     18 calls
JK: J       :       0.00u       0.00s       0.00w     15 calls
JK: J1      :       0.00u       0.00s       0.00w     15 calls
JK: J2      :       0.00u       0.00s       0.00w     15 calls
JK: K       :       0.00u       0.00s       0.00w     15 calls
JK: K1      :       0.00u       0.00s       0.00w     15 calls
JK: K2      :       0.00u       0.00s       0.00w     15 calls
JK: AO2USO  :       0.00u       0.00s       0.00w     15 calls
Form F      :       0.00u       0.00s       0.00w     18 calls
DIIS        :       0.00u       0.00s       0.00w     18 calls
DIISManager::add_entry:       0.00u       0.00s       0.00w     18 calls
Form C      :       0.00u       0.00s       0.00w     18 calls
Form D      :       0.00u       0.00s       0.00w     18 calls
DIISManager::extrapolate:       0.00u       0.00s       0.00w     15 calls
DIISManager::extrapolate: bMatrix setup:       0.00u       0.00s       0.00w     15 calls
DIISManager::extrapolate: bMatrix pseudoinverse:       0.00u       0.00s       0.00w     15 calls
DIISManager::extrapolate: form new data:       0.00u       0.00s       0.00w     15 calls
DFMP2 Singles:       0.00u       0.00s       0.00w      1 call
DFMP2 Aia   :       0.10u       0.02s       0.00w      1 call
DFMP2 (A|mn):       0.00u       0.02s       0.00w      1 call
DFMP2 (A|mn)C_mi:       0.00u       0.00s       0.00w      1 call
DFMP2 (A|mi)C_na:       0.00u       0.00s       0.00w      1 call
DFMP2 Aia Write:       0.00u       0.00s       0.00w      1 call
DFMP2 Qia   :       0.07u       0.00s       0.00w      1 call
DFMP2 Metric:       0.07u       0.00s       0.00w      1 call
DFMP2 Aia Read:       0.00u       0.00s       0.00w      1 call
DFMP2 (Q|A)(A|ia):       0.00u       0.00s       0.00w      1 call
DFMP2 Qia Write:       0.00u       0.00s       0.00w      1 call
DFMP2 Energy:       0.00u       0.00s       0.00w      1 call
DFMP2 Qia Read:       0.00u       0.00s       0.00w      2 calls

***********************************************************

Host: Kevins-MacBook-Pro.local

Timers On : Sat Jan  3 11:27:14 2015
Timers Off: Sat Jan  3 11:27:22 2015

Wall Time:        8.00 seconds

JK: (A|mn)  :       0.12u       0.00s       0.00w      3 calls
JK: (A|Q)^-1/2:       0.20u       0.00s       0.00w      3 calls
JK: (Q|mn)  :       0.02u       0.00s       0.00w      3 calls
Form H      :       0.00u       0.00s       0.00w      3 calls
Form S/X    :       0.00u       0.00s       0.00w      3 calls
Guess       :       0.00u       0.00s       0.00w      3 calls
Form G      :       0.13u       0.00s       0.00w     34 calls
JK: D       :       0.00u       0.00s       0.00w     34 calls
JK: USO2AO  :       0.00u       0.00s       0.00w     28 calls
JK: JK      :       0.08u       0.00s       0.00w     34 calls
JK: J       :       0.00u       0.00s       0.00w     28 calls
JK: J1      :       0.00u       0.00s       0.00w     28 calls
JK: J2      :       0.00u       0.00s       0.00w     28 calls
JK: K       :       0.05u       0.00s       0.00w     28 calls
JK: K1      :       0.05u       0.00s       0.00w     28 calls
JK: K2      :       0.00u       0.00s       0.00w     28 calls
JK: AO2USO  :       0.00u       0.00s       0.00w     28 calls
Form F      :       0.00u       0.00s       0.00w     34 calls
DIIS        :       0.00u       0.00s       0.00w     34 calls
DIISManager::add_entry:       0.00u       0.00s       0.00w     34 calls
Form C      :       0.00u       0.00s       0.00w     34 calls
Form D      :       0.00u       0.00s       0.00w     34 calls
DIISManager::extrapolate:       0.00u       0.00s       0.00w     31 calls
DIISManager::extrapolate: bMatrix setup:       0.00u       0.00s       0.00w     31 calls
DIISManager::extrapolate: bMatrix pseudoinverse:       0.00u       0.00s       0.00w     31 calls
DIISManager::extrapolate: form new data:       0.00u       0.00s       0.00w     31 calls
DFMP2 Singles:       0.00u       0.00s       0.00w      1 call
DFMP2 Aia   :       0.55u       0.35s       0.00w      1 call
DFMP2 (A|mn):       0.27u       0.23s       0.00w      1 call
DFMP2 (A|mn)C_mi:       0.00u       0.00s       0.00w      1 call
DFMP2 (A|mi)C_na:       0.00u       0.00s       0.00w      1 call
DFMP2 Aia Write:       0.00u       0.00s       0.00w      1 call
DFMP2 Qia   :       0.12u       0.05s       0.00w      1 call
DFMP2 Metric:       0.07u       0.00s       0.00w      1 call
DFMP2 Aia Read:       0.00u       0.00s       0.00w      1 call
DFMP2 (Q|A)(A|ia):       0.00u       0.00s       0.00w      1 call
DFMP2 Qia Write:       0.00u       0.00s       0.00w      1 call
DFMP2 Energy:       0.00u       0.00s       0.00w      1 call
DFMP2 Qia Read:       0.00u       0.00s       0.00w      2 calls

***********************************************************

Host: Kevins-MacBook-Pro.local

Timers On : Sat Jan  3 19:34:18 2015
Timers Off: Sat Jan  3 19:34:24 2015

Wall Time:        6.00 seconds

JK: (A|mn)  :       0.10u       0.00s       0.00w      3 calls
JK: (A|Q)^-1/2:       0.20u       0.00s       0.00w      3 calls
JK: (Q|mn)  :       0.00u       0.00s       0.00w      3 calls
Form H      :       0.00u       0.02s       0.00w      3 calls
Form S/X    :       0.00u       0.00s       0.00w      3 calls
Guess       :       0.00u       0.00s       0.00w      3 calls
Form G      :       0.10u       0.00s       0.00w     34 calls
JK: D       :       0.00u       0.00s       0.00w     34 calls
JK: USO2AO  :       0.00u       0.00s       0.00w     28 calls
JK: JK      :       0.03u       0.00s       0.00w     34 calls
JK: J       :       0.00u       0.00s       0.00w     28 calls
JK: J1      :       0.00u       0.00s       0.00w     28 calls
JK: J2      :       0.00u       0.00s       0.00w     28 calls
JK: K       :       0.02u       0.00s       0.00w     28 calls
JK: K1      :       0.00u       0.00s       0.00w     28 calls
JK: K2      :       0.02u       0.00s       0.00w     28 calls
JK: AO2USO  :       0.00u       0.00s       0.00w     28 calls
Form F      :       0.00u       0.00s       0.00w     34 calls
DIIS        :       0.02u       0.00s       0.00w     34 calls
DIISManager::add_entry:       0.00u       0.00s       0.00w     34 calls
Form C      :       0.02u       0.00s       0.00w     34 calls
Form D      :       0.00u       0.00s       0.00w     34 calls
DIISManager::extrapolate:       0.02u       0.00s       0.00w     31 calls
DIISManager::extrapolate: bMatrix setup:       0.00u       0.00s       0.00w     31 calls
DIISManager::extrapolate: bMatrix pseudoinverse:       0.00u       0.00s       0.00w     31 calls
DIISManager::extrapolate: form new data:       0.02u       0.00s       0.00w     31 calls
DFMP2 Singles:       0.00u       0.00s       0.00w      1 call
DFMP2 Aia   :       0.55u       0.35s       0.00w      1 call
[...]
DFMP2 Qia   :       0.03u       0.00s       0.00w      1 call
DFMP2 Metric:       0.03u       0.00s       0.00w      1 call
DFMP2 Aia Read:       0.00u       0.00s       0.00w      1 call
DFMP2 (Q|A)(A|ia):       0.00u       0.00s       0.00w      1 call
DFMP2 Qia Write:       0.00u       0.00s       0.00w      1 call
DFMP2 Energy:       0.00u       0.00s       0.00w      1 call
DFMP2 Qia Read:       0.00u       0.00s       0.00w      2 calls

***********************************************************

Host: Kevins-MacBook-Pro.local

Timers On : Wed Jan  7 10:05:00 2015
Timers Off: Wed Jan  7 10:05:01 2015

Wall Time:        1.00 seconds

JK: (A|mn)  :       0.00u       0.00s       0.00w      3 calls
JK: (A|Q)^-1/2:       0.07u       0.00s       0.00w      3 calls
JK: (Q|mn)  :       0.00u       0.00s       0.00w      3 calls
Form H      :       0.00u       0.00s       0.00w      3 calls
Form S/X    :       0.02u       0.00s       0.00w      3 calls
Guess       :       0.00u       0.00s       0.00w      3 calls
Form G      :       0.00u       0.00s       0.00w     23 calls
JK: D       :       0.00u       0.00s       0.00w     23 calls
JK: USO2AO  :       0.00u       0.00s       0.00w     23 calls
JK: JK      :       0.00u       0.00s       0.00w     23 calls
JK: J       :       0.00u       0.00s       0.00w     23 calls
JK: J1      :       0.00u       0.00s       0.00w     23 calls
JK: J2      :       0.00u       0.00s       0.00w     23 calls
JK: K       :       0.00u       0.00s       0.00w     23 calls
JK: K1      :       0.00u       0.00s       0.00w     23 calls
JK: K2      :       0.00u       0.00s       0.00w     23 calls
JK: AO2USO  :       0.00u       0.00s       0.00w     23 calls
Form F      :       0.00u       0.00s       0.00w     23 calls
DIIS        :       0.00u       0.00s       0.00w     23 calls
DIISManager::add_entry:       0.00u       0.00s       0.00w     23 calls
Form C      :       0.00u       0.00s       0.00w     23 calls
Form D      :       0.00u       0.00s       0.00w     23 calls
DIISManager::extrapolate:       0.00u       0.00s       0.00w     20 calls
DIISManager::extrapolate: bMatrix setup:       0.00u       0.00s       0.00w     20 calls
DIISManager::extrapolate: bMatrix pseudoinverse:       0.00u       0.00s       0.00w     20 calls
DIISManager::extrapolate: form new data:       0.00u       0.00s       0.00w     20 calls
DFMP2 Singles:       0.00u       0.00s       0.00w      1 call
DFMP2 Aia   :       0.03u       0.00s       0.00w      1 call
DFMP2 (A|mn):       0.00u       0.00s       0.00w      1 call
DFMP2 (A|mn)C_mi:       0.00u       0.00s       0.00w      1 call
DFMP2 (A|mi)C_na:       0.00u       0.00s       0.00w      1 call
DFMP2 Aia Write:       0.00u       0.00s       0.00w      1 call
DFMP2 Qia   :       0.02u       0.00s       0.00w      1 call
DFMP2 Metric:       0.02u       0.00s       0.00w      1 call
DFMP2 Aia Read:       0.00u       0.00s       0.00w      1 call
DFMP2 (Q|A)(A|ia):       0.00u       0.00s       0.00w      1 call
DFMP2 Qia Write:       0.00u       0.00s       0.00w      1 call
DFMP2 Energy:       0.00u       0.00s       0.00w      1 call
DFMP2 Qia Read:       0.00u       0.00s       0.00w      2 calls

***********************************************************

Host: Kevins-MacBook-Pro.local

Timers On : Wed Jan  7 10:20:06 2015
Timers Off: Wed Jan  7 10:20:07 2015

Wall Time:        1.00 seconds

JK: (A|mn)  :       0.02u       0.00s       0.00w      3 calls
JK: (A|Q)^-1/2:       0.07u       0.00s       0.00w      3 calls
JK: (Q|mn)  :       0.00u       0.00s       0.00w      3 calls
Form H      :       0.00u       0.00s       0.00w      3 calls
Form S/X    :       0.00u       0.00s       0.00w      3 calls
Guess       :       0.00u       0.00s       0.00w      3 calls
Form G      :       0.00u       0.00s       0.00w     23 calls
JK: D       :       0.00u       0.00s       0.00w     23 calls
JK: USO2AO  :       0.00u       0.00s       0.00w     23 calls
JK: JK      :       0.00u       0.00s       0.00w     23 calls
JK: J       :       0.00u       0.00s       0.00w     23 calls
JK: J1      :       0.00u       0.00s       0.00w     23 calls
JK: J2      :       0.00u       0.00s       0.00w     23 calls
JK: K       :       0.00u       0.00s       0.00w     23 calls
JK: K1      :       0.00u       0.00s       0.00w     23 calls
JK: K2      :       0.00u       0.00s       0.00w     23 calls
JK: AO2USO  :       0.00u       0.00s       0.00w     23 calls
Form F      :       0.00u       0.00s       0.00w     23 calls
DIIS        :       0.00u       0.00s       0.00w     23 calls
DIISManager::add_entry:       0.00u       0.00s       0.00w     23 calls
Form C      :       0.00u       0.00s       0.00w     23 calls
Form D      :       0.00u       0.00s       0.00w     23 calls
DIISManager::extrapolate:       0.00u       0.00s       0.00w     20 calls
DIISManager::extrapolate: bMatrix setup:       0.00u       0.00s       0.00w     20 calls
DIISManager::extrapolate: bMatrix pseudoinverse:       0.00u       0.00s       0.00w     20 calls
DIISManager::extrapolate: form new data:       0.00u       0.00s       0.00w     20 calls
DFMP2 Singles:       0.00u       0.00s       0.00w      1 call
DFMP2 Aia   :       0.03u       0.00s       0.00w      1 call
DFMP2 (A|mn):       0.00u       0.00s       0.00w      1 call
DFMP2 (A|mn)C_mi:       0.00u       0.00s       0.00w      1 call
DFMP2 (A|mi)C_na:       0.00u       0.00s       0.00w      1 call
DFMP2 Aia Write:       0.00u       0.00s       0.00w      1 call
DFMP2 Qia   :       0.02u       0.00s       0.00w      1 call
DFMP2 Metric:       0.02u       0.00s       0.00w      1 call
DFMP2 Aia Read:       0.00u       0.00s       0.00w      1 call
DFMP2 (Q|A)(A|ia):       0.00u       0.00s       0.00w      1 call
DFMP2 Qia Write:       0.00u       0.00s       0.00w      1 call
DFMP2 Energy:       0.00u       0.00s       0.00w      1 call
DFMP2 Qia Read:       0.00u       0.00s       0.00w      2 calls

***********************************************************

Host: Kevins-MacBook-Pro.local

Timers On : Wed Jan  7 10:34:06 2015
Timers Off: Wed Jan  7 10:34:06 2015

Wall Time:        0.00 seconds

JK: (A|mn)  :       0.00u       0.00s       0.00w      3 calls
JK: (A|Q)^-1/2:       0.07u       0.00s       0.00w      3 calls
JK: (Q|mn)  :       0.00u       0.00s       0.00w      3 calls
Form H      :       0.00u       0.00s       0.00w      3 calls
Form S/X    :       0.00u       0.00s       0.00w      3 calls
Guess       :       0.00u       0.00s       0.00w      3 calls
Form G      :       0.00u       0.00s       0.00w     23 calls
JK: D       :       0.00u       0.00s       0.00w     23 calls
JK: USO2AO  :       0.00u       0.00s       0.00w     23 calls
JK: JK      :       0.00u       0.00s       0.00w     23 calls
JK: J       :       0.00u       0.00s       0.00w     23 calls
JK: J1      :       0.00u       0.00s       0.00w     23 calls
JK: J2      :       0.00u       0.00s       0.00w     23 calls
JK: K       :       0.00u       0.00s       0.00w     23 calls
JK: K1      :       0.00u       0.00s       0.00w     23 calls
JK: K2      :       0.00u       0.00s       0.00w     23 calls
JK: AO2USO  :       0.00u       0.00s       0.00w     23 calls
Form F      :       0.00u       0.00s       0.00w     23 calls
DIIS        :       0.00u       0.00s       0.00w     23 calls
DIISManager::add_entry:       0.00u       0.00s       0.00w     23 calls
Form C      :       0.00u       0.00s       0.00w     23 calls
Form D      :       0.00u       0.00s       0.00w     23 calls
DIISManager::extrapolate:       0.00u       0.00s       0.00w     20 calls
DIISManager::extrapolate: bMatrix setup:       0.00u       0.00s       0.00w     20 calls
DIISManager::extrapolate: bMatrix pseudoinverse:       0.00u       0.00s       0.00w     20 calls
DIISManager::extrapolate: form new data:       0.00u       0.00s       0.00w     20 calls
DFMP2 Singles:       0.00u       0.00s       0.00w      1 call
DFMP2 Aia   :       0.03u       0.00s       0.00w      1 call
DFMP2 (A|mn):       0.00u       0.00s       0.00w      1 call
DFMP2 (A|mn)C_mi:       0.00u       0.00s       0.00w      1 call
DFMP2 (A|mi)C_na:       0.00u       0.00s       0.00w      1 call
DFMP2 Aia Write:       0.00u       0.00s       0.00w      1 call
DFMP2 Qia   :       0.03u       0.00s       0.00w      1 call
DFMP2 Metric:       0.03u       0.00s       0.00w      1 call
DFMP2 Aia Read:       0.00u       0.00s       0.00w      1 call
DFMP2 (Q|A)(A|ia):       0.00u       0.00s       0.00w      1 call
DFMP2 Qia Write:       0.00u       0.00s       0.00w      1 call
DFMP2 Energy:       0.00u       0.00s       0.00w      1 call
DFMP2 Qia Read:       0.00u       0.00s       0.00w      2 calls

***********************************************************

Host: Kevins-MacBook-Pro.local

Timers On : Wed Jan  7 10:37:43 2015
Timers Off: Wed Jan  7 10:37:44 2015

Wall Time:        1.00 seconds

JK: (A|mn)  :       0.02u       0.00s       0.00w      3 calls
JK: (A|Q)^-1/2:       0.05u       0.00s       0.00w      3 calls
JK: (Q|mn)  :       0.00u       0.00s       0.00w      3 calls
Form H      :       0.00u       0.00s       0.00w      3 calls
Form S/X    :       0.00u       0.00s       0.00w      3 calls
Guess       :       0.00u       0.00s       0.00w      3 calls
Form G      :       0.00u       0.00s       0.00w     23 calls
JK: D       :       0.00u       0.00s       0.00w     23 calls
JK: USO2AO  :       0.00u       0.00s       0.00w     23 calls
JK: JK      :       0.00u       0.00s       0.00w     23 calls
JK: J       :       0.00u       0.00s       0.00w     23 calls
JK: J1      :       0.00u       0.00s       0.00w     23 calls
JK: J2      :       0.00u       0.00s       0.00w     23 calls
JK: K       :       0.00u       0.00s       0.00w     23 calls
JK: K1      :       0.00u       0.00s       0.00w     23 calls
JK: K2      :       0.00u       0.00s       0.00w     23 calls
JK: AO2USO  :       0.00u       0.00s       0.00w     23 calls
Form F      :       0.00u       0.00s       0.00w     23 calls
DIIS        :       0.00u       0.00s       0.00w     23 calls
DIISManager::add_entry:       0.00u       0.00s       0.00w     23 calls
Form C      :       0.00u       0.00s       0.00w     23 calls
Form D      :       0.00u       0.00s       0.00w     23 calls
DIISManager::extrapolate:       0.00u       0.00s       0.00w     20 calls
DIISManager::extrapolate: bMatrix setup:       0.00u       0.00s       0.00w     20 calls
DIISManager::extrapolate: bMatrix pseudoinverse:       0.00u       0.00s       0.00w     20 calls
DIISManager::extrapolate: form new data:       0.00u       0.00s       0.00w     20 calls
DFMP2 Singles:       0.00u       0.00s       0.00w      1 call
DFMP2 Aia   :       0.02u       0.00s       0.00w      1 call
DFMP2 (A|mn):       0.00u       0.00s       0.00w      1 call
DFMP2 (A|mn)C_mi:       0.00u       0.00s       0.00w      1 call
DFMP2 (A|mi)C_na:       0.00u       0.00s       0.00w      1 call
DFMP2 Aia Write:       0.00u       0.00s       0.00w      1 call
DFMP2 Qia   :       0.03u       0.00s       0.00w      1 call
DFMP2 Metric:       0.03u       0.00s       0.00w      1 call
DFMP2 Aia Read:       0.00u       0.00s       0.00w      1 call
DFMP2 (Q|A)(A|ia):       0.00u       0.00s       0.00w      1 call
DFMP2 Qia Write:       0.00u       0.00s       0.00w      1 call
DFMP2 Energy:       0.00u       0.00s       0.00w      1 call
DFMP2 Qia Read:       0.00u       0.00s       0.00w      2 calls

***********************************************************

Host: Kevins-MacBook-Pro.local

Timers On : Wed Jan  7 10:53:09 2015
Timers Off: Wed Jan  7 10:53:10 2015

Wall Time:        1.00 seconds

JK: (A|mn)  :       0.00u       0.00s       0.00w      3 calls
JK: (A|Q)^-1/2:       0.10u       0.00s       0.00w      3 calls
JK: (Q|mn)  :       0.00u       0.00s       0.00w      3 calls
Form H      :       0.00u       0.00s       0.00w      3 calls
Form S/X    :       0.00u       0.00s       0.00w      3 calls
Guess       :       0.00u       0.00s       0.00w      3 calls
Form G      :       0.00u       0.02s       0.00w     23 calls
JK: D       :       0.00u       0.00s       0.00w     23 calls
JK: USO2AO  :       0.00u       0.00s       0.00w     23 calls
JK: JK      :       0.00u       0.00s       0.00w     23 calls
JK: J       :       0.00u       0.00s       0.00w     23 calls
JK: J1      :       0.00u       0.00s       0.00w     23 calls
JK: J2      :       0.00u       0.00s       0.00w     23 calls
JK: K       :       0.00u       0.00s       0.00w     23 calls
JK: K1      :       0.00u       0.00s       0.00w     23 calls
JK: K2      :       0.00u       0.00s       0.00w     23 calls
JK: AO2USO  :       0.00u       0.00s       0.00w     23 calls
Form F      :       0.00u       0.00s       0.00w     23 calls
DIIS        :       0.00u       0.00s       0.00w     23 calls
DIISManager::add_entry:       0.00u       0.00s       0.00w     23 calls
Form C      :       0.00u       0.00s       0.00w     23 calls
Form D      :       0.00u       0.00s       0.00w     23 calls
DIISManager::extrapolate:       0.00u       0.00s       0.00w     20 calls
DIISManager::extrapolate: bMatrix setup:       0.00u       0.00s       0.00w     20 calls
DIISManager::extrapolate: bMatrix pseudoinverse:       0.00u       0.00s       0.00w     20 calls
DIISManager::extrapolate: form new data:       0.00u       0.00s       0.00w     20 calls
DFMP2 Singles:       0.00u       0.00s       0.00w      1 call
DFMP2 Aia   :       0.02u       0.00s       0.00w      1 call
DFMP2 (A|mn):       0.00u       0.00s       0.00w      1 call
DFMP2 (A|mn)C_mi:       0.00u       0.00s       0.00w      1 call
DFMP2 (A|mi)C_na:       0.00u       0.00s       0.00w      1 call
DFMP2 Aia Write:       0.00u       0.00s       0.00w      1 call
DFMP2 Qia   :       0.03u       0.00s       0.00w      1 call
DFMP2 Metric:       0.03u       0.00s       0.00w      1 call
DFMP2 Aia Read:       0.00u       0.00s       0.00w      1 call
DFMP2 (Q|A)(A|ia):       0.00u       0.00s       0.00w      1 call
DFMP2 Qia Write:       0.00u       0.00s       0.00w      1 call
DFMP2 Energy:       0.00u       0.00s       0.00w      1 call
DFMP2 Qia Read:       0.00u       0.00s       0.00w      2 calls

***********************************************************

Host: Kevins-MacBook-Pro.local

Timers On : Wed Jan  7 10:53:49 2015
Timers Off: Wed Jan  7 10:53:50 2015

Wall Time:        1.00 seconds

JK: (A|mn)  :       0.00u       0.00s       0.00w      3 calls
JK: (A|Q)^-1/2:       0.05u       0.00s       0.00w      3 calls
JK: (Q|mn)  :       0.00u       0.00s       0.00w      3 calls
Form H      :       0.03u       0.02s       0.00w      3 calls
Form S/X    :       0.00u       0.00s       0.00w      3 calls
Guess       :       0.00u       0.00s       0.00w      3 calls
Form G      :       0.00u       0.00s       0.00w     23 calls
JK: D       :       0.00u       0.00s       0.00w     23 calls
JK: USO2AO  :       0.00u       0.00s       0.00w     23 calls
JK: JK      :       0.00u       0.00s       0.00w     23 calls
JK: J       :       0.00u       0.00s       0.00w     23 calls
JK: J1      :       0.00u       0.00s       0.00w     23 calls
JK: J2      :       0.00u       0.00s       0.00w     23 calls
JK: K       :       0.00u       0.00s       0.00w     23 calls
JK: K1      :       0.00u       0.00s       0.00w     23 calls
JK: K2      :       0.00u       0.00s       0.00w     23 calls
JK: AO2USO  :       0.00u       0.00s       0.00w     23 calls
Form F      :       0.00u       0.00s       0.00w     23 calls
DIIS        :       0.02u       0.00s       0.00w     23 calls
DIISManager::add_entry:       0.00u       0.00s       0.00w     23 calls
Form C      :       0.00u       0.00s       0.00w     23 calls
Form D      :       0.00u       0.00s       0.00w     23 calls
DIISManager::extrapolate:       0.02u       0.00s       0.00w     20 calls
DIISManager::extrapolate: bMatrix setup:       0.00u       0.00s       0.00w     20 calls
DIISManager::extrapolate: bMatrix pseudoinverse:       0.02u       0.00s       0.00w     20 calls
DIISManager::extrapolate: form new data:       0.00u       0.00s       0.00w     20 calls
DFMP2 Singles:       0.00u       0.00s       0.00w      1 call
DFMP2 Aia   :       0.03u       0.00s       0.00w      1 call
DFMP2 (A|mn):       0.00u       0.00s       0.00w      1 call
DFMP2 (A|mn)C_mi:       0.00u       0.00s       0.00w      1 call
DFMP2 (A|mi)C_na:       0.00u       0.00s       0.00w      1 call
DFMP2 Aia Write:       0.00u       0.00s       0.00w      1 call
DFMP2 Qia   :       0.02u       0.00s       0.00w      1 call
DFMP2 Metric:       0.02u       0.00s       0.00w      1 call
DFMP2 Aia Read:       0.00u       0.00s       0.00w      1 call
DFMP2 (Q|A)(A|ia):       0.00u       0.00s       0.00w      1 call
DFMP2 Qia Write:       0.00u       0.00s       0.00w      1 call
DFMP2 Energy:       0.00u       0.00s       0.00w      1 call
DFMP2 Qia Read:       0.00u       0.00s       0.00w      2 calls

***********************************************************

Host: Kevins-MacBook-Pro.local

Timers On : Wed Jan  7 10:54:08 2015
Timers Off: Wed Jan  7 10:54:09 2015

Wall Time:        1.00 seconds

JK: (A|mn)  :       0.02u       0.00s       0.00w      3 calls
JK: (A|Q)^-1/2:       0.05u       0.00s       0.00w      3 calls
JK: (Q|mn)  :       0.00u       0.00s       0.00w      3 calls
Form H      :       0.02u       0.00s       0.00w      3 calls
Form S/X    :       0.00u       0.00s       0.00w      3 calls
Guess       :       0.00u       0.00s       0.00w      3 calls
Form G      :       0.00u       0.00s       0.00w     23 calls
JK: D       :       0.00u       0.00s       0.00w     23 calls
JK: USO2AO  :       0.00u       0.00s       0.00w     23 calls
JK: JK      :       0.00u       0.00s       0.00w     23 calls
JK: J       :       0.00u       0.00s       0.00w     23 calls
JK: J1      :       0.00u       0.00s       0.00w     23 calls
JK: J2      :       0.00u       0.00s       0.00w     23 calls
JK: K       :       0.00u       0.00s       0.00w     23 calls
JK: K1      :       0.00u       0.00s       0.00w     23 calls
JK: K2      :       0.00u       0.00s       0.00w     23 calls
JK: AO2USO  :       0.00u       0.00s       0.00w     23 calls
Form F      :       0.00u       0.00s       0.00w     23 calls
DIIS        :       0.00u       0.00s       0.00w     23 calls
DIISManager::add_entry:       0.00u       0.00s       0.00w     23 calls
Form C      :       0.00u       0.00s       0.00w     23 calls
Form D      :       0.00u       0.00s       0.00w     23 calls
DIISManager::extrapolate:       0.00u       0.00s       0.00w     20 calls
DIISManager::extrapolate: bMatrix setup:       0.00u       0.00s       0.00w     20 calls
DIISManager::extrapolate: bMatrix pseudoinverse:       0.00u       0.00s       0.00w     20 calls
DIISManager::extrapolate: form new data:       0.00u       0.00s       0.00w     20 calls
DFMP2 Singles:       0.00u       0.00s       0.00w      1 call
DFMP2 Aia   :       0.03u       0.00s       0.00w      1 call
DFMP2 (A|mn):       0.00u       0.00s       0.00w      1 call
DFMP2 (A|mn)C_mi:       0.00u       0.00s       0.00w      1 call
DFMP2 (A|mi)C_na:       0.00u       0.00s       0.00w      1 call
DFMP2 Aia Write:       0.00u       0.00s       0.00w      1 call
DFMP2 Qia   :       0.02u       0.00s       0.00w      1 call
DFMP2 Metric:       0.02u       0.00s       0.00w      1 call
DFMP2 Aia Read:       0.00u       0.00s       0.00w      1 call
DFMP2 (Q|A)(A|ia):       0.00u       0.00s       0.00w      1 call
DFMP2 Qia Write:       0.00u       0.00s       0.00w      1 call
DFMP2 Energy:       0.00u       0.00s       0.00w      1 call
DFMP2 Qia Read:       0.00u       0.00s       0.00w      2 calls

***********************************************************
