    -----------------------------------------------------------------------
          PSI4: An Open-Source Ab Initio Electronic Structure Package
                              PSI 4.0 Driver

               Git: Rev {master} 556e8139d3cfa1f96ccffe2cdf22cc56a185d2b2

    J. M. Turney, A. C. Simmonett, R. M. Parrish, E. G. Hohenstein,
    F. A. Evangelista, J. T. Fermann, B. J. Mintz, L. A. Burns, J. J. Wilke,
    M. L. Abrams, N. J. Russ, M. L. Leininger, C. L. Janssen, E. T. Seidl,
    W. D. Allen, H. F. Schaefer, R. A. King, E. F. Valeev, C. D. Sherrill,
    and T. D. Crawford, WIREs Comput. Mol. Sci. 2, 556-565 (2012)
    (doi: 10.1002/wcms.93)

                         Additional Contributions by
    A. E. DePrince, M. Saitow, U. Bozkaya, A. Yu. Sokolov
    -----------------------------------------------------------------------

    Process ID:  11952
    PSI4DATADIR: /Users/kevinhannon/Programs/psi4cmake/psi4/lib
    Memory level set to 256.000 MB

  ==> Input File <==

--------------------------------------------------------------------------

# PYTHONPATH must include directory above plugin directory.
#     Define either externally or here, then import plugin.
sys.path.insert(0, '/Users/kevinhannon/Programs/Quantum_Programs/Quantum-Programs/GS/')
import scf

molecule {
0 1
H
H 1 2.70000
symmetry c1
units angstrom
}


set {
  basis cc-pvdz
  reference rhf
  scf_type  pk
}

set scf {
  DO_FTHF true
  MAX_ITER 130
  MAX_TEMP 100
  TEMP_INCREMENT 0
  bisect  true
  bisect_iter  40
}
energy('rhf')

energy('scf')


--------------------------------------------------------------------------

*** tstart() called on Kevins-MacBook-Pro.local
*** at Fri Apr 10 18:02:15 2015

/Users/kevinhannon/Programs/Quantum_Programs/Quantum-Programs/GS/scf/scf.so loaded.

*** tstart() called on Kevins-MacBook-Pro.local
*** at Fri Apr 10 18:02:15 2015


         ---------------------------------------------------------
                                   SCF
            by Justin Turney, Rob Parrish, and Andy Simmonett
                              RHF Reference
                        1 Threads,    256 MiB Core
         ---------------------------------------------------------

  ==> Geometry <==

    Molecular point group: c1
    Full point group: D_inf_h

    Geometry (in Angstrom), charge = 0, multiplicity = 1:

       Center              X                  Y                   Z       
    ------------   -----------------  -----------------  -----------------
           H          0.000000000000     0.000000000000    -1.350000000000
           H          0.000000000000     0.000000000000     1.350000000000

  Running in c1 symmetry.

  Rotational constants: A = ************  B =      4.58896  C =      4.58896 [cm^-1]
  Rotational constants: A = ************  B = 137573.41639  C = 137573.41639 [MHz]
  Nuclear repulsion =    0.195991558737037

  Charge       = 0
  Multiplicity = 1
  Electrons    = 2
  Nalpha       = 1
  Nbeta        = 1

  ==> Algorithm <==

  SCF Algorithm Type is PK.
  DIIS enabled.
  MOM disabled.
  Fractional occupation disabled.
  Guess Type is CORE.
  Energy threshold   = 1.00e-06
  Density threshold  = 1.00e-06
  Integral threshold = 0.00e+00

  ==> Primary Basis <==

  Basis Set: CC-PVDZ
    Number of shells: 6
    Number of basis function: 10
    Number of Cartesian functions: 10
    Spherical Harmonics?: true
    Max angular momentum: 1

  ==> Pre-Iterations <==

   -------------------------------------------------------
    Irrep   Nso     Nmo     Nalpha   Nbeta   Ndocc  Nsocc
   -------------------------------------------------------
     A         10      10       0       0       0       0
   -------------------------------------------------------
    Total      10      10       1       1       1       0
   -------------------------------------------------------

  Starting with a DF guess...

 OEINTS: Overlap, kinetic, potential, dipole, and quadrupole integrals
         stored in file 35.

  ==> Integral Setup <==

  ==> DFJK: Density-Fitted J/K Matrices <==

    J tasked:                  Yes
    K tasked:                  Yes
    wK tasked:                  No
    OpenMP threads:              1
    Integrals threads:           1
    Memory (MB):               183
    Algorithm:                Core
    Integral Cache:           NONE
    Schwarz Cutoff:          1E-12
    Fitting Condition:       1E-12

   => Auxiliary Basis Set <=

  Basis Set: 
    Number of shells: 18
    Number of basis function: 46
    Number of Cartesian functions: 50
    Spherical Harmonics?: true
    Max angular momentum: 2

  Minimum eigenvalue in the overlap matrix is 2.5628003889E-01.
  Using Symmetric Orthogonalization.
  SCF Guess: Core (One-Electron) Hamiltonian.

  ==> Iterations <==

                           Total Energy        Delta E     RMS |[F,P]|

   @DF-RHF iter   1:    -0.82890709259507   -8.28907e-01   1.24716e-02 
   @DF-RHF iter   2:    -0.84744728809739   -1.85402e-02   2.13505e-03 DIIS
   @DF-RHF iter   3:    -0.84801570008013   -5.68412e-04   2.77179e-05 DIIS
   @DF-RHF iter   4:    -0.84801576765908   -6.75789e-08   7.92578e-07 DIIS

  DF guess converged.

  ==> Integral Setup <==

 MINTS: Wrapper to libmints.
   by Justin Turney

   Calculation information:
      Number of atoms:                   2
      Number of AO shells:               6
      Number of SO shells:               6
      Number of primitives:             10
      Number of atomic orbitals:        10
      Number of basis functions:        10

      Number of irreps:                  1
      Integral cutoff                 0.00e+00
      Number of functions per irrep: [  10 ]

 OEINTS: Overlap, kinetic, potential, dipole, and quadrupole integrals
         stored in file 35.

      Computing two-electron integrals...done
      Computed 512 non-zero two-electron integrals.
        Stored in file 33.

	Batch   1 pq = [       0,      55] index = [             0,1540]
  ==> DiskJK: Disk-Based J/K Matrices <==

    J tasked:                  Yes
    K tasked:                  Yes
    wK tasked:                  No
    Memory (MB):               183
    Schwarz Cutoff:          1E-12

   @RHF iter   5:    -0.84798760185545    2.81658e-05   7.48912e-06 DIIS
   @RHF iter   6:    -0.84798760809100   -6.23555e-09   1.25671e-06 DIIS
   @RHF iter   7:    -0.84798760828090   -1.89900e-10   2.45141e-08 DIIS

  ==> Post-Iterations <==

    Orbital Energies (a.u.)
    -----------------------

    Doubly Occupied:                                                      

       1A     -0.337927  

    Virtual:                                                              

       2A     -0.098779     3A      0.609333     4A      0.674305  
       5A      1.462583     6A      1.462583     7A      1.462590  
       8A      1.466913     9A      1.466913    10A      1.495458  

    Final Occupation by Irrep:
              A 
    DOCC [     1 ]

  Energy converged.

  @RHF Final Energy:    -0.84798760828090

   => Energetics <=

    Nuclear Repulsion Energy =              0.1959915587370370
    One-Electron Energy =                  -1.4121050122382548
    Two-Electron Energy =                   0.3681258452203209
    DFT Exchange-Correlation Energy =       0.0000000000000000
    Empirical Dispersion Energy =           0.0000000000000000
    PCM Polarization Energy =               0.0000000000000000
    EFP Energy =                            0.0000000000000000
    Total Energy =                         -0.8479876082808968

    Alert: EFP and PCM quantities not currently incorporated into SCF psivars.

Properties will be evaluated at   0.000000,   0.000000,   0.000000 Bohr
  ==> Properties <==


Properties computed using the SCF density matrix

  Nuclear Dipole Moment: (a.u.)
     X:     0.0000      Y:     0.0000      Z:     0.0000

  Electronic Dipole Moment: (a.u.)
     X:    -0.0000      Y:     0.0000      Z:    -0.0000

  Dipole Moment: (a.u.)
     X:    -0.0000      Y:     0.0000      Z:    -0.0000     Total:     0.0000

  Dipole Moment: (Debye)
     X:    -0.0000      Y:     0.0000      Z:    -0.0000     Total:     0.0000


  Saving occupied orbitals to File 180.

*** tstop() called on Kevins-MacBook-Pro.local at Fri Apr 10 18:02:16 2015
Module time:
	user time   =       0.20 seconds =       0.00 minutes
	system time =       0.01 seconds =       0.00 minutes
	total time  =          1 seconds =       0.02 minutes
Total time:
	user time   =       0.21 seconds =       0.00 minutes
	system time =       0.01 seconds =       0.00 minutes
	total time  =          1 seconds =       0.02 minutes

*** tstart() called on Kevins-MacBook-Pro.local
*** at Fri Apr 10 18:02:16 2015


         ---------------------------------------------------------
                                   SCF
            by Justin Turney, Rob Parrish, and Andy Simmonett
                              RHF Reference
                        1 Threads,    256 MiB Core
         ---------------------------------------------------------

  ==> Geometry <==

    Molecular point group: c1
    Full point group: D_inf_h

    Geometry (in Angstrom), charge = 0, multiplicity = 1:

       Center              X                  Y                   Z       
    ------------   -----------------  -----------------  -----------------
           H          0.000000000000     0.000000000000    -1.350000000000
           H          0.000000000000     0.000000000000     1.350000000000

  Running in c1 symmetry.

  Rotational constants: A = ************  B =      4.58896  C =      4.58896 [cm^-1]
  Rotational constants: A = ************  B = 137573.41639  C = 137573.41639 [MHz]
  Nuclear repulsion =    0.195991558737037

  Charge       = 0
  Multiplicity = 1
  Electrons    = 2
  Nalpha       = 1
  Nbeta        = 1

  ==> Algorithm <==

  SCF Algorithm Type is PK.
  DIIS enabled.
  MOM disabled.
  Fractional occupation disabled.
  Guess Type is CORE.
  Energy threshold   = 1.00e-08
  Density threshold  = 1.00e-08
  Integral threshold = 0.00e+00

  ==> Primary Basis <==

  Basis Set: CC-PVDZ
    Number of shells: 6
    Number of basis function: 10
    Number of Cartesian functions: 10
    Spherical Harmonics?: true
    Max angular momentum: 1

  ==> Pre-Iterations <==

   -------------------------------------------------------
    Irrep   Nso     Nmo     Nalpha   Nbeta   Ndocc  Nsocc
   -------------------------------------------------------
     A         10      10       0       0       0       0
   -------------------------------------------------------
    Total      10      10       1       1       1       0
   -------------------------------------------------------

  Starting with a DF guess...

 OEINTS: Overlap, kinetic, potential, dipole, and quadrupole integrals
         stored in file 35.

  ==> Integral Setup <==

  ==> DFJK: Density-Fitted J/K Matrices <==

    J tasked:                  Yes
    K tasked:                  Yes
    wK tasked:                  No
    OpenMP threads:              1
    Integrals threads:           1
    Memory (MB):               183
    Algorithm:                Core
    Integral Cache:           NONE
    Schwarz Cutoff:          1E-12
    Fitting Condition:       1E-12

   => Auxiliary Basis Set <=

  Basis Set: 
    Number of shells: 18
    Number of basis function: 46
    Number of Cartesian functions: 50
    Spherical Harmonics?: true
    Max angular momentum: 2

  Minimum eigenvalue in the overlap matrix is 2.5628003889E-01.
  Using Symmetric Orthogonalization.
  SCF Guess: Core (One-Electron) Hamiltonian.

  ==> Iterations <==

                           Total Energy        Delta E     RMS |[F,P]|

   @DF-RHF iter   1:    -0.82890709259507   -8.28907e-01   1.24716e-02 
   @DF-RHF iter   2:    -0.84744728809739   -1.85402e-02   2.13505e-03 DIIS
   @DF-RHF iter   3:    -0.84801570008013   -5.68412e-04   2.77179e-05 DIIS
   @DF-RHF iter   4:    -0.84801576765908   -6.75789e-08   7.92578e-07 DIIS
   @DF-RHF iter   5:    -0.84801576771047   -5.13847e-11   2.07236e-10 DIIS

  DF guess converged.

  ==> Integral Setup <==

 MINTS: Wrapper to libmints.
   by Justin Turney

   Calculation information:
      Number of atoms:                   2
      Number of AO shells:               6
      Number of SO shells:               6
      Number of primitives:             10
      Number of atomic orbitals:        10
      Number of basis functions:        10

      Number of irreps:                  1
      Integral cutoff                 0.00e+00
      Number of functions per irrep: [  10 ]

 OEINTS: Overlap, kinetic, potential, dipole, and quadrupole integrals
         stored in file 35.

      Computing two-electron integrals...done
      Computed 512 non-zero two-electron integrals.
        Stored in file 33.

	Batch   1 pq = [       0,      55] index = [             0,1540]
  ==> DiskJK: Disk-Based J/K Matrices <==

    J tasked:                  Yes
    K tasked:                  Yes
    wK tasked:                  No
    Memory (MB):               183
    Schwarz Cutoff:          1E-12

   @RHF iter   6:    -0.84798760185580    2.81659e-05   7.48891e-06 DIIS
   @RHF iter   7:    -0.84798760809101   -6.23521e-09   1.25667e-06 DIIS
   @RHF iter   8:    -0.84798760828090   -1.89888e-10   2.45134e-08 DIIS
   @RHF iter   9:    -0.84798760828095   -5.32907e-14   3.53453e-13 DIIS

  ==> Post-Iterations <==

    Orbital Energies (a.u.)
    -----------------------

    Doubly Occupied:                                                      

       1A     -0.337927  

    Virtual:                                                              

       2A     -0.098779     3A      0.609333     4A      0.674305  
       5A      1.462583     6A      1.462583     7A      1.462590  
       8A      1.466913     9A      1.466913    10A      1.495458  

    Final Occupation by Irrep:
              A 
    DOCC [     1 ]

  Energy converged.

  @RHF Final Energy:    -0.84798760828095

   => Energetics <=

    Nuclear Repulsion Energy =              0.1959915587370370
    One-Electron Energy =                  -1.4121050424967283
    Two-Electron Energy =                   0.3681258754787418
    DFT Exchange-Correlation Energy =       0.0000000000000000
    Empirical Dispersion Energy =           0.0000000000000000
    PCM Polarization Energy =               0.0000000000000000
    EFP Energy =                            0.0000000000000000
    Total Energy =                         -0.8479876082809494

    Alert: EFP and PCM quantities not currently incorporated into SCF psivars.

Properties will be evaluated at   0.000000,   0.000000,   0.000000 Bohr
  ==> Properties <==


Properties computed using the SCF density matrix

  Nuclear Dipole Moment: (a.u.)
     X:     0.0000      Y:     0.0000      Z:     0.0000

  Electronic Dipole Moment: (a.u.)
     X:    -0.0000      Y:     0.0000      Z:    -0.0000

  Dipole Moment: (a.u.)
     X:    -0.0000      Y:     0.0000      Z:    -0.0000     Total:     0.0000

  Dipole Moment: (Debye)
     X:    -0.0000      Y:     0.0000      Z:    -0.0000     Total:     0.0000


  Saving occupied orbitals to File 180.

*** tstop() called on Kevins-MacBook-Pro.local at Fri Apr 10 18:02:16 2015
Module time:
	user time   =       0.19 seconds =       0.00 minutes
	system time =       0.01 seconds =       0.00 minutes
	total time  =          0 seconds =       0.00 minutes
Total time:
	user time   =       0.41 seconds =       0.01 minutes
	system time =       0.02 seconds =       0.00 minutes
	total time  =          1 seconds =       0.02 minutes
Reading options from the SCF block
Calling plugin scf.so.
    Molecular point group: c1
    Full point group: D_inf_h

    Geometry (in Angstrom), charge = 0, multiplicity = 1:

       Center              X                  Y                   Z       
    ------------   -----------------  -----------------  -----------------
           H          0.000000000000     0.000000000000    -1.350000000000
           H          0.000000000000     0.000000000000     1.350000000000


    Nuclear repulsion energy:       0.19599156

  ## Overlap (Symmetry 0) ##
  Irrep: 1 Size: 10 x 10

                 1                   2                   3                   4                   5

    1     1.00000000000000     0.68486025149275     0.00000000000000     0.00000000000000     0.00000000000000
    2     0.68486025149275     1.00000000000000     0.00000000000000     0.00000000000000     0.00000000000000
    3     0.00000000000000     0.00000000000000     1.00000000000000     0.00000000000000     0.00000000000000
    4     0.00000000000000     0.00000000000000     0.00000000000000     1.00000000000000     0.00000000000000
    5     0.00000000000000     0.00000000000000     0.00000000000000     0.00000000000000     1.00000000000000
    6     0.00205141799584     0.05409549553433     0.00195368348012     0.00000000000000     0.00000000000000
    7     0.05409549553433     0.20433043188526     0.04841616521590     0.00000000000000     0.00000000000000
    8    -0.00195368348012    -0.04841616521590    -0.00139234749195     0.00000000000000     0.00000000000000
    9     0.00000000000000     0.00000000000000     0.00000000000000     0.00007767179763     0.00000000000000
   10     0.00000000000000     0.00000000000000     0.00000000000000     0.00000000000000     0.00007767179763

                 6                   7                   8                   9                  10

    1     0.00205141799584     0.05409549553433    -0.00195368348012     0.00000000000000     0.00000000000000
    2     0.05409549553433     0.20433043188526    -0.04841616521590     0.00000000000000     0.00000000000000
    3     0.00195368348012     0.04841616521590    -0.00139234749195     0.00000000000000     0.00000000000000
    4     0.00000000000000     0.00000000000000     0.00000000000000     0.00007767179763     0.00000000000000
    5     0.00000000000000     0.00000000000000     0.00000000000000     0.00000000000000     0.00007767179763
    6     1.00000000000000     0.68486025149275     0.00000000000000     0.00000000000000     0.00000000000000
    7     0.68486025149275     1.00000000000000     0.00000000000000     0.00000000000000     0.00000000000000
    8     0.00000000000000     0.00000000000000     1.00000000000000     0.00000000000000     0.00000000000000
    9     0.00000000000000     0.00000000000000     0.00000000000000     1.00000000000000     0.00000000000000
   10     0.00000000000000     0.00000000000000     0.00000000000000     0.00000000000000     1.00000000000000



  ## Kinetic (Symmetry 0) ##
  Irrep: 1 Size: 10 x 10

                 1                   2                   3                   4                   5

    1     0.96945722711242     0.20123413106538     0.00000000000000     0.00000000000000     0.00000000000000
    2     0.20123413106538     0.18300000000000     0.00000000000000     0.00000000000000     0.00000000000000
    3     0.00000000000000     0.00000000000000     1.81750000000000     0.00000000000000     0.00000000000000
    4     0.00000000000000     0.00000000000000     0.00000000000000     1.81750000000000     0.00000000000000
    5     0.00000000000000     0.00000000000000     0.00000000000000     0.00000000000000     1.81750000000000
    6    -0.00399138178675    -0.01087999215978    -0.00505900592501     0.00000000000000     0.00000000000000
    7    -0.01087999215978    -0.00219411109506    -0.00222189376922     0.00000000000000     0.00000000000000
    8     0.00505900592501     0.00222189376922     0.00597951816350     0.00000000000000     0.00000000000000
    9     0.00000000000000     0.00000000000000     0.00000000000000    -0.00039318351957     0.00000000000000
   10     0.00000000000000     0.00000000000000     0.00000000000000     0.00000000000000    -0.00039318351957

                 6                   7                   8                   9                  10

    1    -0.00399138178675    -0.01087999215978     0.00505900592501     0.00000000000000     0.00000000000000
    2    -0.01087999215978    -0.00219411109506     0.00222189376922     0.00000000000000     0.00000000000000
    3    -0.00505900592501    -0.00222189376922     0.00597951816350     0.00000000000000     0.00000000000000
    4     0.00000000000000     0.00000000000000     0.00000000000000    -0.00039318351957     0.00000000000000
    5     0.00000000000000     0.00000000000000     0.00000000000000     0.00000000000000    -0.00039318351957
    6     0.96945722711242     0.20123413106538     0.00000000000000     0.00000000000000     0.00000000000000
    7     0.20123413106538     0.18300000000000     0.00000000000000     0.00000000000000     0.00000000000000
    8     0.00000000000000     0.00000000000000     1.81750000000000     0.00000000000000     0.00000000000000
    9     0.00000000000000     0.00000000000000     0.00000000000000     1.81750000000000     0.00000000000000
   10     0.00000000000000     0.00000000000000     0.00000000000000     0.00000000000000     1.81750000000000



  ## Potential (Symmetry 0) ##
  Irrep: 1 Size: 10 x 10

                 1                   2                   3                   4                   5

    1    -1.57385334342500    -0.78393402724385    -0.02416637946603     0.00000000000000     0.00000000000000
    2    -0.78393402724385    -0.75329824361072    -0.02266931450180     0.00000000000000     0.00000000000000
    3    -0.02416637946603    -0.02266931450180    -1.10825024841974     0.00000000000000     0.00000000000000
    4     0.00000000000000     0.00000000000000     0.00000000000000    -1.10048350508766     0.00000000000000
    5     0.00000000000000     0.00000000000000     0.00000000000000     0.00000000000000    -1.10048350508766
    6    -0.00161760528967    -0.05427176956133    -0.00155511215972     0.00000000000000     0.00000000000000
    7    -0.05427176956133    -0.14821795249083    -0.04389059164210     0.00000000000000     0.00000000000000
    8     0.00155511215972     0.04389059164210     0.00108512208725     0.00000000000000     0.00000000000000
    9     0.00000000000000     0.00000000000000     0.00000000000000    -0.00005767478024     0.00000000000000
   10     0.00000000000000     0.00000000000000     0.00000000000000     0.00000000000000    -0.00005767478024

                 6                   7                   8                   9                  10

    1    -0.00161760528967    -0.05427176956133     0.00155511215972     0.00000000000000     0.00000000000000
    2    -0.05427176956133    -0.14821795249083     0.04389059164210     0.00000000000000     0.00000000000000
    3    -0.00155511215972    -0.04389059164210     0.00108512208725     0.00000000000000     0.00000000000000
    4     0.00000000000000     0.00000000000000     0.00000000000000    -0.00005767478024     0.00000000000000
    5     0.00000000000000     0.00000000000000     0.00000000000000     0.00000000000000    -0.00005767478024
    6    -1.57385334342500    -0.78393402724385     0.02416637946603     0.00000000000000     0.00000000000000
    7    -0.78393402724385    -0.75329824361072     0.02266931450180     0.00000000000000     0.00000000000000
    8     0.02416637946603     0.02266931450180    -1.10825024841974     0.00000000000000     0.00000000000000
    9     0.00000000000000     0.00000000000000     0.00000000000000    -1.10048350508766     0.00000000000000
   10     0.00000000000000     0.00000000000000     0.00000000000000     0.00000000000000    -1.10048350508766



  ## One Electron Ints (Symmetry 0) ##
  Irrep: 1 Size: 10 x 10

                 1                   2                   3                   4                   5

    1    -0.60439611631257    -0.58269989617847    -0.02416637946603     0.00000000000000     0.00000000000000
    2    -0.58269989617847    -0.57029824361072    -0.02266931450180     0.00000000000000     0.00000000000000
    3    -0.02416637946603    -0.02266931450180     0.70924975158026     0.00000000000000     0.00000000000000
    4     0.00000000000000     0.00000000000000     0.00000000000000     0.71701649491234     0.00000000000000
    5     0.00000000000000     0.00000000000000     0.00000000000000     0.00000000000000     0.71701649491234
    6    -0.00560898707641    -0.06515176172110    -0.00661411808473     0.00000000000000     0.00000000000000
    7    -0.06515176172110    -0.15041206358590    -0.04611248541132     0.00000000000000     0.00000000000000
    8     0.00661411808473     0.04611248541132     0.00706464025075     0.00000000000000     0.00000000000000
    9     0.00000000000000     0.00000000000000     0.00000000000000    -0.00045085829981     0.00000000000000
   10     0.00000000000000     0.00000000000000     0.00000000000000     0.00000000000000    -0.00045085829981

                 6                   7                   8                   9                  10

    1    -0.00560898707641    -0.06515176172110     0.00661411808473     0.00000000000000     0.00000000000000
    2    -0.06515176172110    -0.15041206358590     0.04611248541132     0.00000000000000     0.00000000000000
    3    -0.00661411808473    -0.04611248541132     0.00706464025075     0.00000000000000     0.00000000000000
    4     0.00000000000000     0.00000000000000     0.00000000000000    -0.00045085829981     0.00000000000000
    5     0.00000000000000     0.00000000000000     0.00000000000000     0.00000000000000    -0.00045085829981
    6    -0.60439611631257    -0.58269989617847     0.02416637946603     0.00000000000000     0.00000000000000
    7    -0.58269989617847    -0.57029824361072     0.02266931450180     0.00000000000000     0.00000000000000
    8     0.02416637946603     0.02266931450180     0.70924975158026     0.00000000000000     0.00000000000000
    9     0.00000000000000     0.00000000000000     0.00000000000000     0.71701649491234     0.00000000000000
   10     0.00000000000000     0.00000000000000     0.00000000000000     0.00000000000000     0.71701649491234




	There are 0 unique integrals

  ## Fock (Symmetry 0) ##
  Irrep: 1 Size: 10 x 10

                 1                   2                   3                   4                   5

    1    -0.37225921131554    -0.35086493353837    -0.02440482568266    -0.00000000000000     0.00000000000000
    2    -0.35086493353837    -0.30621189628487    -0.00303938818857     0.00000000000000     0.00000000000000
    3    -0.02440482568266    -0.00303938818857     0.71402985281801    -0.00000000000000     0.00000000000000
    4    -0.00000000000000     0.00000000000000    -0.00000000000000     0.71701653425701     0.00000000000000
    5     0.00000000000000     0.00000000000000     0.00000000000000     0.00000000000000     0.71701653425701
    6    -0.00039045437308     0.01402905372117     0.03561858718317    -0.00000000000000     0.00000000000000
    7     0.01402905372117    -0.07287426967792    -0.07405167155587     0.00000000000000     0.00000000000000
    8    -0.03561858718317     0.07405167155587     0.00834886425299     0.00000000000000     0.00000000000000
    9    -0.00000000000000     0.00000000000000     0.00000000000000    -0.00050655026296     0.00000000000000
   10     0.00000000000000     0.00000000000000     0.00000000000000     0.00000000000000    -0.00050655026296

                 6                   7                   8                   9                  10

    1    -0.00039045437308     0.01402905372117    -0.03561858718317    -0.00000000000000     0.00000000000000
    2     0.01402905372117    -0.07287426967792     0.07405167155587     0.00000000000000     0.00000000000000
    3     0.03561858718317    -0.07405167155587     0.00834886425299     0.00000000000000     0.00000000000000
    4    -0.00000000000000     0.00000000000000     0.00000000000000    -0.00050655026296     0.00000000000000
    5     0.00000000000000     0.00000000000000     0.00000000000000     0.00000000000000    -0.00050655026296
    6    -0.37225921131554    -0.35086493353837     0.02440482568266    -0.00000000000000     0.00000000000000
    7    -0.35086493353837    -0.30621189628487     0.00303938818857     0.00000000000000     0.00000000000000
    8     0.02440482568266     0.00303938818857     0.71402985281801     0.00000000000000     0.00000000000000
    9    -0.00000000000000     0.00000000000000     0.00000000000000     0.71701653425701     0.00000000000000
   10     0.00000000000000     0.00000000000000     0.00000000000000     0.00000000000000     0.71701653425701



  ## C (Symmetry 0) ##
  Irrep: 1 Size: 10 x 10

                 1                   2                   3                   4                   5

    1    -0.91810053618523    -0.88184349375244    -0.03044337107489    -0.03895628572586     0.02339454537962
    2     0.96958811503158     0.85730746236265     0.01321374028427     0.12065160473564    -0.06477625572541
    3    -0.49933996566824     0.49797850202272     0.05835901445163     0.02581996999957    -0.01393393947815
    4     0.44655139632426    -0.53948926806643     0.09768921303981     0.00002746112751     0.00000000000000
    5     0.02513254412045    -0.05750495022122     0.70428948896130    -0.00000000000001     0.00000000000000
    6     0.02769664224716     0.04130620499856     0.00145306015248     0.36796790010828    -0.90871377684763
    7    -0.10186331780089    -0.12268834196338    -0.00349849356167    -0.92819330612615     0.37272164060081
    8     0.02867996923717     0.02637935315767     0.00051326980761     0.00475374049264    -0.70985012074541
    9    -0.00001734222487     0.00002095155066    -0.00000379384838    -0.70710678278605     0.00000000000000
   10    -0.06266496022396     0.07494647071975     0.70029870599774     0.00000000000000     0.00000000000000

                 6                   7                   8                   9                  10

    1    -0.35122444566723    -0.41253256327517     0.02994279774051    -0.03895628572583    -0.00308850574651
    2    -0.46034800838281    -0.32652206198619    -0.01195105183221     0.12065160473557    -0.01313631572628
    3    -0.50666338117545     0.49191552105836    -0.05835254759480     0.02581996999956    -0.01254911164798
    4    -0.44655139632426     0.53948926806643     0.09768921303981    -0.00002746112751     0.00000000000000
    5     0.02512767689613    -0.05749912916756    -0.70434388454533    -0.00000000000005     0.00000000000000
    6    -0.03231779636795    -0.00837913629496    -0.00140006510092     0.36796790010806    -0.90518515218709
    7     0.08400754209513     0.03119224616780     0.00333436246203    -0.92819330612558     0.36321415961553
    8    -0.01109720601736    -0.00655176431706    -0.00047814503593     0.00475374049264     0.70632149608486
    9     0.00001734222487    -0.00002095155066    -0.00000379384842     0.70710678278648     0.00000000000000
   10     0.06266300832310    -0.07494200443296     0.70035341154095     0.00000000000001     0.00000000000000




 In Bisection function HOMO = -0.714  LUMO =  0.735

 0.01054 = (-0.71427 + 0.73535)/2.0
 sum -  nocc_ = 2.00000000
 On Iteration in Bisection 0
 a: 2.00000  b:-0.50000

 -0.35187 = (-0.71427 + 0.01054)/2.0
 sum -  nocc_ = 1.00000000
 On Iteration in Bisection 1
 a: 1.00000  b:-0.50000

 -0.53307 = (-0.71427 + -0.35187)/2.0
 sum -  nocc_ = 1.00000000
 On Iteration in Bisection 2
 a: 1.00000  b:-0.50000

 -0.62367 = (-0.71427 + -0.53307)/2.0
 sum -  nocc_ = 1.00000000
 On Iteration in Bisection 3
 a: 1.00000  b:-0.50000

 -0.66897 = (-0.71427 + -0.62367)/2.0
 sum -  nocc_ = 0.99999988
 On Iteration in Bisection 4
 a: 1.00000  b:-0.50000

 -0.69162 = (-0.71427 + -0.66897)/2.0
 sum -  nocc_ = 0.00000000
 ef = -0.69162 sum = 1.00000 

 Iter: 0  T:      100.000  val:-0.691623  sumni 0.00000
 ne = 1.0000

Nuc Replusion =       0.195991558737
 1st iteration =       0.647851344816
 In Bisection function HOMO = -0.306  LUMO =  1.878

 0.78575 = (-0.30637 + 1.87786)/2.0
 sum -  nocc_ = 3.00000000
 On Iteration in Bisection 0
 a: 3.00000  b:-0.50000

 0.23969 = (-0.30637 + 0.78575)/2.0
 sum -  nocc_ = 1.00000000
 On Iteration in Bisection 1
 a: 1.00000  b:-0.50000

 -0.03334 = (-0.30637 + 0.23969)/2.0
 sum -  nocc_ = 0.00000000
 ef = -0.03334 sum = 1.00000 

 Iter: 0  T:      100.000  val:-0.033337  sumni 0.00000
 ne = 1.0000

 iter:1  failiter:1  energy:     -0.999713371047  total:     -0.803721812310  error:     -0.151725762766
 In Bisection function HOMO = -0.311  LUMO =  1.912

 0.80048 = (-0.31085 + 1.91181)/2.0
 sum -  nocc_ = 2.00000000
 On Iteration in Bisection 0
 a: 2.00000  b:-0.50000

 0.24482 = (-0.31085 + 0.80048)/2.0
 sum -  nocc_ = 1.00000000
 On Iteration in Bisection 1
 a: 1.00000  b:-0.50000

 -0.03302 = (-0.31085 + 0.24482)/2.0
 sum -  nocc_ = 1.00000000
 On Iteration in Bisection 2
 a: 1.00000  b:-0.50000

 -0.17193 = (-0.31085 + -0.03302)/2.0
 sum -  nocc_ = 0.00000000
 ef = -0.17193 sum = 1.00000 

 Iter: 1  T:      100.000  val:-0.171933  sumni 0.00000
 ne = 1.0000

 iter:2  failiter:2  energy:     -1.008046113316  total:     -0.812054554579  error:     -0.008332742269
 In Bisection function HOMO = -0.314  LUMO =  1.899

 0.79244 = (-0.31372 + 1.89860)/2.0
 sum -  nocc_ = 2.00000000
 On Iteration in Bisection 0
 a: 2.00000  b:-0.50000

 0.23936 = (-0.31372 + 0.79244)/2.0
 sum -  nocc_ = 1.00000000
 On Iteration in Bisection 1
 a: 1.00000  b:-0.50000

 -0.03718 = (-0.31372 + 0.23936)/2.0
 sum -  nocc_ = 1.00000000
 On Iteration in Bisection 2
 a: 1.00000  b:-0.50000

 -0.17545 = (-0.31372 + -0.03718)/2.0
 sum -  nocc_ = 0.00000000
 ef = -0.17545 sum = 1.00000 

 Iter: 2  T:      100.000  val:-0.175445  sumni 0.00000
 ne = 1.0000

 iter:3  failiter:3  energy:     -1.014099105695  total:     -0.818107546958  error:     -0.006052992379
 In Bisection function HOMO = -0.316  LUMO =  1.872

 0.77811 = (-0.31603 + 1.87226)/2.0
 sum -  nocc_ = 2.00000000
 On Iteration in Bisection 0
 a: 2.00000  b:-0.50000

 0.23104 = (-0.31603 + 0.77811)/2.0
 sum -  nocc_ = 1.00000000
 On Iteration in Bisection 1
 a: 1.00000  b:-0.50000

 -0.04250 = (-0.31603 + 0.23104)/2.0
 sum -  nocc_ = 1.00000000
 On Iteration in Bisection 2
 a: 1.00000  b:-0.50000

 -0.17926 = (-0.31603 + -0.04250)/2.0
 sum -  nocc_ = 0.00000000
 ef = -0.17926 sum = 1.00000 

 Iter: 3  T:      100.000  val:-0.179264  sumni 0.00000
 ne = 1.0000

 iter:4  failiter:4  energy:     -1.018894062559  total:     -0.822902503822  error:     -0.004794956864
 In Bisection function HOMO = -0.319  LUMO =  1.838

 0.75959 = (-0.31854 + 1.83771)/2.0
 sum -  nocc_ = 2.00000000
 On Iteration in Bisection 0
 a: 2.00000  b:-0.50000

 0.22053 = (-0.31854 + 0.75959)/2.0
 sum -  nocc_ = 1.00000000
 On Iteration in Bisection 1
 a: 1.00000  b:-0.50000

 -0.04900 = (-0.31854 + 0.22053)/2.0
 sum -  nocc_ = 1.00000000
 On Iteration in Bisection 2
 a: 1.00000  b:-0.50000

 -0.18377 = (-0.31854 + -0.04900)/2.0
 sum -  nocc_ = 0.00000000
 ef = -0.18377 sum = 1.00000 

 Iter: 4  T:      100.000  val:-0.183770  sumni 0.00000
 ne = 1.0000

 iter:5  failiter:5  energy:     -1.023232305841  total:     -0.827240747104  error:     -0.004338243282
 In Bisection function HOMO = -0.321  LUMO =  1.797

 0.73794 = (-0.32141 + 1.79729)/2.0
 sum -  nocc_ = 2.00000000
 On Iteration in Bisection 0
 a: 2.00000  b:-0.50000

 0.20827 = (-0.32141 + 0.73794)/2.0
 sum -  nocc_ = 1.00000000
 On Iteration in Bisection 1
 a: 1.00000  b:-0.50000

 -0.05657 = (-0.32141 + 0.20827)/2.0
 sum -  nocc_ = 1.00000000
 On Iteration in Bisection 2
 a: 1.00000  b:-0.50000

 -0.18899 = (-0.32141 + -0.05657)/2.0
 sum -  nocc_ = 0.00000000
 ef = -0.18899 sum = 1.00000 

 Iter: 5  T:      100.000  val:-0.188989  sumni 0.00000
 ne = 1.0000

 iter:6  failiter:6  energy:     -1.027324421115  total:     -0.831332862378  error:     -0.004092115274
 In Bisection function HOMO = -0.325  LUMO =  1.753

 0.71409 = (-0.32461 + 1.75279)/2.0
 sum -  nocc_ = 2.00000000
 On Iteration in Bisection 0
 a: 2.00000  b:-0.50000

 0.19474 = (-0.32461 + 0.71409)/2.0
 sum -  nocc_ = 1.00000000
 On Iteration in Bisection 1
 a: 1.00000  b:-0.50000

 -0.06493 = (-0.32461 + 0.19474)/2.0
 sum -  nocc_ = 1.00000000
 On Iteration in Bisection 2
 a: 1.00000  b:-0.50000

 -0.19477 = (-0.32461 + -0.06493)/2.0
 sum -  nocc_ = 0.00000000
 ef = -0.19477 sum = 1.00000 

 Iter: 6  T:      100.000  val:-0.194772  sumni 0.00000
 ne = 1.0000

 iter:7  failiter:7  energy:     -1.031185508487  total:     -0.835193949750  error:     -0.003861087372
 In Bisection function HOMO = -0.328  LUMO =  1.707

 0.68940 = (-0.32789 + 1.70669)/2.0
 sum -  nocc_ = 2.00000000
 On Iteration in Bisection 0
 a: 2.00000  b:-0.50000

 0.18075 = (-0.32789 + 0.68940)/2.0
 sum -  nocc_ = 1.00000000
 On Iteration in Bisection 1
 a: 1.00000  b:-0.50000

 -0.07357 = (-0.32789 + 0.18075)/2.0
 sum -  nocc_ = 1.00000000
 On Iteration in Bisection 2
 a: 1.00000  b:-0.50000

 -0.20073 = (-0.32789 + -0.07357)/2.0
 sum -  nocc_ = 0.00000000
 ef = -0.20073 sum = 1.00000 

 Iter: 7  T:      100.000  val:-0.200731  sumni 0.00000
 ne = 1.0000

 iter:8  failiter:8  energy:     -1.034684886702  total:     -0.838693327965  error:     -0.003499378215
 In Bisection function HOMO = -0.331  LUMO =  1.662

 0.66560 = (-0.33090 + 1.66211)/2.0
 sum -  nocc_ = 2.00000000
 On Iteration in Bisection 0
 a: 2.00000  b:-0.50000

 0.16735 = (-0.33090 + 0.66560)/2.0
 sum -  nocc_ = 1.00000000
 On Iteration in Bisection 1
 a: 1.00000  b:-0.50000

 -0.08177 = (-0.33090 + 0.16735)/2.0
 sum -  nocc_ = 1.00000000
 On Iteration in Bisection 2
 a: 1.00000  b:-0.50000

 -0.20634 = (-0.33090 + -0.08177)/2.0
 sum -  nocc_ = 0.00000000
 ef = -0.20634 sum = 1.00000 

 Iter: 8  T:      100.000  val:-0.206338  sumni 0.00000
 ne = 1.0000

 iter:9  failiter:9  energy:     -1.037635480928  total:     -0.841643922191  error:     -0.002950594225
 In Bisection function HOMO = -0.333  LUMO =  1.622

 0.64433 = (-0.33334 + 1.62200)/2.0
 sum -  nocc_ = 2.00000000
 On Iteration in Bisection 0
 a: 2.00000  b:-0.50000

 0.15550 = (-0.33334 + 0.64433)/2.0
 sum -  nocc_ = 1.00000000
 On Iteration in Bisection 1
 a: 1.00000  b:-0.50000

 -0.08892 = (-0.33334 + 0.15550)/2.0
 sum -  nocc_ = 1.00000000
 On Iteration in Bisection 2
 a: 1.00000  b:-0.50000

 -0.21113 = (-0.33334 + -0.08892)/2.0
 sum -  nocc_ = 0.00000000
 ef = -0.21113 sum = 1.00000 

 Iter: 9  T:      100.000  val:-0.211132  sumni 0.00000
 ne = 1.0000

 iter:10  failiter:10  energy:     -1.039907736150  total:     -0.843916177413  error:     -0.002272255222
 In Bisection function HOMO = -0.335  LUMO =  1.588

 0.62659 = (-0.33511 + 1.58830)/2.0
 sum -  nocc_ = 2.00000000
 On Iteration in Bisection 0
 a: 2.00000  b:-0.50000

 0.14574 = (-0.33511 + 0.62659)/2.0
 sum -  nocc_ = 1.00000000
 On Iteration in Bisection 1
 a: 1.00000  b:-0.50000

 -0.09468 = (-0.33511 + 0.14574)/2.0
 sum -  nocc_ = 0.99999936
 On Iteration in Bisection 2
 a: 1.00000  b:-0.50000

 -0.21489 = (-0.33511 + -0.09468)/2.0
 sum -  nocc_ = 0.00000000
 ef = -0.21489 sum = 1.00000 

 Iter: 10  T:      100.000  val:-0.214895  sumni 0.00000
 ne = 1.0000

 iter:11  failiter:11  energy:     -1.041502659987  total:     -0.845511101250  error:     -0.001594923837
 In Bisection function HOMO = -0.336  LUMO =  1.562

 0.61262 = (-0.33627 + 1.56151)/2.0
 sum -  nocc_ = 2.00000000
 On Iteration in Bisection 0
 a: 2.00000  b:-0.50000

 0.13817 = (-0.33627 + 0.61262)/2.0
 sum -  nocc_ = 1.00000000
 On Iteration in Bisection 1
 a: 1.00000  b:-0.50000

 -0.09905 = (-0.33627 + 0.13817)/2.0
 sum -  nocc_ = 0.47193186
 On Iteration in Bisection 2
 a: 0.47193  b:-0.50000

 -0.21766 = (-0.33627 + -0.09905)/2.0
 sum -  nocc_ = 0.00000000
 ef = -0.21766 sum = 1.00000 

 Iter: 11  T:      100.000  val:-0.217660  sumni 0.00000
 ne = 1.0000

 iter:12  failiter:12  energy:     -1.042534673638  total:     -0.846543114901  error:     -0.001032013651
 In Bisection function HOMO = -0.337  LUMO =  1.541

 0.60206 = (-0.33699 + 1.54111)/2.0
 sum -  nocc_ = 2.00000000
 On Iteration in Bisection 0
 a: 2.00000  b:-0.50000

 0.13254 = (-0.33699 + 0.60206)/2.0
 sum -  nocc_ = 1.00000000
 On Iteration in Bisection 1
 a: 1.00000  b:-0.50000

 -0.10222 = (-0.33699 + 0.13254)/2.0
 sum -  nocc_ = 0.00002814
 On Iteration in Bisection 2
 a: 0.00003  b:-0.50000

 -0.21960 = (-0.33699 + -0.10222)/2.0
 sum -  nocc_ = 0.00000000
 ef = -0.21960 sum = 1.00000 

 Iter: 12  T:      100.000  val:-0.219605  sumni 0.00000
 ne = 1.0000

 iter:13  failiter:13  energy:     -1.043161442508  total:     -0.847169883771  error:     -0.000626768870
 In Bisection function HOMO = -0.337  LUMO =  1.526

 0.59435 = (-0.33740 + 1.52609)/2.0
 sum -  nocc_ = 1.00039903
 On Iteration in Bisection 0
 a: 1.00040  b:-0.50000

 0.12847 = (-0.33740 + 0.59435)/2.0
 sum -  nocc_ = 1.00000000
 On Iteration in Bisection 1
 a: 1.00000  b:-0.50000

 -0.10447 = (-0.33740 + 0.12847)/2.0
 sum -  nocc_ = 0.00000002
 On Iteration in Bisection 2
 a: 0.00000  b:-0.50000

 -0.22093 = (-0.33740 + -0.10447)/2.0
 sum -  nocc_ = 0.00000000
 ef = -0.22093 sum = 1.00000 

 Iter: 13  T:      100.000  val:-0.220935  sumni 0.00000
 ne = 1.0000

 iter:14  failiter:14  energy:     -1.043525338516  total:     -0.847533779779  error:     -0.000363896008
 In Bisection function HOMO = -0.338  LUMO =  1.515

 0.58886 = (-0.33764 + 1.51536)/2.0
 sum -  nocc_ = 1.00000000
 On Iteration in Bisection 0
 a: 1.00000  b:-0.50000

 0.12561 = (-0.33764 + 0.58886)/2.0
 sum -  nocc_ = 1.00000000
 On Iteration in Bisection 1
 a: 1.00000  b:-0.50000

 -0.10601 = (-0.33764 + 0.12561)/2.0
 sum -  nocc_ = 0.00000000
 ef = -0.10601 sum = 1.00000 

 Iter: 14  T:      100.000  val:-0.106015  sumni 0.00000
 ne = 1.0000

 iter:15  failiter:15  energy:     -1.043730406732  total:     -0.847738847995  error:     -0.000205068216
 In Bisection function HOMO = -0.338  LUMO =  1.508

 0.58508 = (-0.33777 + 1.50793)/2.0
 sum -  nocc_ = 1.00000000
 On Iteration in Bisection 0
 a: 1.00000  b:-0.50000

 0.12365 = (-0.33777 + 0.58508)/2.0
 sum -  nocc_ = 1.00000000
 On Iteration in Bisection 1
 a: 1.00000  b:-0.50000

 -0.10706 = (-0.33777 + 0.12365)/2.0
 sum -  nocc_ = 0.00000000
 ef = -0.10706 sum = 1.00000 

 Iter: 15  T:      100.000  val:-0.107058  sumni 0.00000
 ne = 1.0000

 iter:16  failiter:16  energy:     -1.043843826251  total:     -0.847852267514  error:     -0.000113419519
 In Bisection function HOMO = -0.338  LUMO =  1.503

 0.58257 = (-0.33784 + 1.50299)/2.0
 sum -  nocc_ = 1.00000000
 On Iteration in Bisection 0
 a: 1.00000  b:-0.50000

 0.12237 = (-0.33784 + 0.58257)/2.0
 sum -  nocc_ = 1.00000000
 On Iteration in Bisection 1
 a: 1.00000  b:-0.50000

 -0.10774 = (-0.33784 + 0.12237)/2.0
 sum -  nocc_ = 0.00000000
 ef = -0.10774 sum = 1.00000 

 Iter: 16  T:      100.000  val:-0.107738  sumni 0.00000
 ne = 1.0000

 iter:17  failiter:17  energy:     -1.043905852874  total:     -0.847914294137  error:     -0.000062026622
 In Bisection function HOMO = -0.338  LUMO =  1.500

 0.58099 = (-0.33788 + 1.49985)/2.0
 sum -  nocc_ = 1.00000000
 On Iteration in Bisection 0
 a: 1.00000  b:-0.50000

 0.12155 = (-0.33788 + 0.58099)/2.0
 sum -  nocc_ = 1.00000000
 On Iteration in Bisection 1
 a: 1.00000  b:-0.50000

 -0.10816 = (-0.33788 + 0.12155)/2.0
 sum -  nocc_ = 0.00000000
 ef = -0.10816 sum = 1.00000 

 Iter: 17  T:      100.000  val:-0.108164  sumni 0.00000
 ne = 1.0000

 iter:18  failiter:18  energy:     -1.043939550773  total:     -0.847947992036  error:     -0.000033697899
 In Bisection function HOMO = -0.338  LUMO =  1.498

 0.58002 = (-0.33790 + 1.49795)/2.0
 sum -  nocc_ = 1.00000000
 On Iteration in Bisection 0
 a: 1.00000  b:-0.50000

 0.12106 = (-0.33790 + 0.58002)/2.0
 sum -  nocc_ = 1.00000000
 On Iteration in Bisection 1
 a: 1.00000  b:-0.50000

 -0.10842 = (-0.33790 + 0.12106)/2.0
 sum -  nocc_ = 0.00000000
 ef = -0.10842 sum = 1.00000 

 Iter: 18  T:      100.000  val:-0.108420  sumni 0.00000
 ne = 1.0000

 iter:19  failiter:19  energy:     -1.043957789450  total:     -0.847966230713  error:     -0.000018238677
 In Bisection function HOMO = -0.338  LUMO =  1.497

 0.57947 = (-0.33791 + 1.49684)/2.0
 sum -  nocc_ = 1.00000000
 On Iteration in Bisection 0
 a: 1.00000  b:-0.50000

 0.12078 = (-0.33791 + 0.57947)/2.0
 sum -  nocc_ = 1.00000000
 On Iteration in Bisection 1
 a: 1.00000  b:-0.50000

 -0.10857 = (-0.33791 + 0.12078)/2.0
 sum -  nocc_ = 0.00000000
 ef = -0.10857 sum = 1.00000 

 Iter: 19  T:      100.000  val:-0.108569  sumni 0.00000
 ne = 1.0000

 iter:20  failiter:20  energy:     -1.043967640147  total:     -0.847976081410  error:     -0.000009850697
 In Bisection function HOMO = -0.338  LUMO =  1.496

 0.57915 = (-0.33792 + 1.49622)/2.0
 sum -  nocc_ = 1.00000000
 On Iteration in Bisection 0
 a: 1.00000  b:-0.50000

 0.12061 = (-0.33792 + 0.57915)/2.0
 sum -  nocc_ = 1.00000000
 On Iteration in Bisection 1
 a: 1.00000  b:-0.50000

 -0.10865 = (-0.33792 + 0.12061)/2.0
 sum -  nocc_ = 0.00000000
 ef = -0.10865 sum = 1.00000 

 Iter: 20  T:      100.000  val:-0.108652  sumni 0.00000
 ne = 1.0000

 iter:21  failiter:21  energy:     -1.043972954284  total:     -0.847981395547  error:     -0.000005314137
 In Bisection function HOMO = -0.338  LUMO =  1.496

 0.57897 = (-0.33792 + 1.49587)/2.0
 sum -  nocc_ = 1.00000000
 On Iteration in Bisection 0
 a: 1.00000  b:-0.50000

 0.12053 = (-0.33792 + 0.57897)/2.0
 sum -  nocc_ = 1.00000000
 On Iteration in Bisection 1
 a: 1.00000  b:-0.50000

 -0.10870 = (-0.33792 + 0.12053)/2.0
 sum -  nocc_ = 0.00000000
 ef = -0.10870 sum = 1.00000 

 Iter: 21  T:      100.000  val:-0.108698  sumni 0.00000
 ne = 1.0000

 iter:22  failiter:22  energy:     -1.043975819253  total:     -0.847984260516  error:     -0.000002864969
 In Bisection function HOMO = -0.338  LUMO =  1.496

 0.57888 = (-0.33792 + 1.49568)/2.0
 sum -  nocc_ = 1.00000000
 On Iteration in Bisection 0
 a: 1.00000  b:-0.50000

 0.12048 = (-0.33792 + 0.57888)/2.0
 sum -  nocc_ = 1.00000000
 On Iteration in Bisection 1
 a: 1.00000  b:-0.50000

 -0.10872 = (-0.33792 + 0.12048)/2.0
 sum -  nocc_ = 0.00000000
 ef = -0.10872 sum = 1.00000 

 Iter: 22  T:      100.000  val:-0.108724  sumni 0.00000
 ne = 1.0000

 iter:23  failiter:23  energy:     -1.043977363280  total:     -0.847985804543  error:     -0.000001544027
 In Bisection function HOMO = -0.338  LUMO =  1.496

 0.57883 = (-0.33793 + 1.49558)/2.0
 sum -  nocc_ = 1.00000000
 On Iteration in Bisection 0
 a: 1.00000  b:-0.50000

 0.12045 = (-0.33793 + 0.57883)/2.0
 sum -  nocc_ = 1.00000000
 On Iteration in Bisection 1
 a: 1.00000  b:-0.50000

 -0.10874 = (-0.33793 + 0.12045)/2.0
 sum -  nocc_ = 0.00000000
 ef = -0.10874 sum = 1.00000 

 Iter: 23  T:      100.000  val:-0.108737  sumni 0.00000
 ne = 1.0000

 iter:24  failiter:24  energy:     -1.043978195250  total:     -0.847986636512  error:     -0.000000831969
 In Bisection function HOMO = -0.338  LUMO =  1.496

 0.57880 = (-0.33793 + 1.49552)/2.0
 sum -  nocc_ = 1.00000000
 On Iteration in Bisection 0
 a: 1.00000  b:-0.50000

 0.12044 = (-0.33793 + 0.57880)/2.0
 sum -  nocc_ = 1.00000000
 On Iteration in Bisection 1
 a: 1.00000  b:-0.50000

 -0.10874 = (-0.33793 + 0.12044)/2.0
 sum -  nocc_ = 0.00000000
 ef = -0.10874 sum = 1.00000 

 Iter: 24  T:      100.000  val:-0.108745  sumni 0.00000
 ne = 1.0000

 iter:25  failiter:25  energy:     -1.043978643494  total:     -0.847987084757  error:     -0.000000448245
 In Bisection function HOMO = -0.338  LUMO =  1.495

 0.57878 = (-0.33793 + 1.49549)/2.0
 sum -  nocc_ = 1.00000000
 On Iteration in Bisection 0
 a: 1.00000  b:-0.50000

 0.12043 = (-0.33793 + 0.57878)/2.0
 sum -  nocc_ = 1.00000000
 On Iteration in Bisection 1
 a: 1.00000  b:-0.50000

 -0.10875 = (-0.33793 + 0.12043)/2.0
 sum -  nocc_ = 0.00000000
 ef = -0.10875 sum = 1.00000 

 Iter: 25  T:      100.000  val:-0.108749  sumni 0.00000
 ne = 1.0000

 iter:26  failiter:26  energy:     -1.043978884984  total:     -0.847987326247  error:     -0.000000241490
 In Bisection function HOMO = -0.338  LUMO =  1.495

 0.57878 = (-0.33793 + 1.49548)/2.0
 sum -  nocc_ = 1.00000000
 On Iteration in Bisection 0
 a: 1.00000  b:-0.50000

 0.12042 = (-0.33793 + 0.57878)/2.0
 sum -  nocc_ = 1.00000000
 On Iteration in Bisection 1
 a: 1.00000  b:-0.50000

 -0.10875 = (-0.33793 + 0.12042)/2.0
 sum -  nocc_ = 0.00000000
 ef = -0.10875 sum = 1.00000 

 Iter: 26  T:      100.000  val:-0.108751  sumni 0.00000
 ne = 1.0000

 iter:27  failiter:27  energy:     -1.043979015081  total:     -0.847987456344  error:     -0.000000130098
 In Bisection function HOMO = -0.338  LUMO =  1.495

 0.57877 = (-0.33793 + 1.49547)/2.0
 sum -  nocc_ = 1.00000000
 On Iteration in Bisection 0
 a: 1.00000  b:-0.50000

 0.12042 = (-0.33793 + 0.57877)/2.0
 sum -  nocc_ = 1.00000000
 On Iteration in Bisection 1
 a: 1.00000  b:-0.50000

 -0.10875 = (-0.33793 + 0.12042)/2.0
 sum -  nocc_ = 0.00000000
 ef = -0.10875 sum = 1.00000 

 Iter: 27  T:      100.000  val:-0.108752  sumni 0.00000
 ne = 1.0000

 iter:28  failiter:28  energy:     -1.043979085168  total:     -0.847987526431  error:     -0.000000070086
 In Bisection function HOMO = -0.338  LUMO =  1.495

 0.57877 = (-0.33793 + 1.49546)/2.0
 sum -  nocc_ = 1.00000000
 On Iteration in Bisection 0
 a: 1.00000  b:-0.50000

 0.12042 = (-0.33793 + 0.57877)/2.0
 sum -  nocc_ = 1.00000000
 On Iteration in Bisection 1
 a: 1.00000  b:-0.50000

 -0.10875 = (-0.33793 + 0.12042)/2.0
 sum -  nocc_ = 0.00000000
 ef = -0.10875 sum = 1.00000 

 Iter: 28  T:      100.000  val:-0.108753  sumni 0.00000
 ne = 1.0000

 iter:29  failiter:29  energy:     -1.043979122924  total:     -0.847987564187  error:     -0.000000037757
 In Bisection function HOMO = -0.338  LUMO =  1.495

 0.57877 = (-0.33793 + 1.49546)/2.0
 sum -  nocc_ = 1.00000000
 On Iteration in Bisection 0
 a: 1.00000  b:-0.50000

 0.12042 = (-0.33793 + 0.57877)/2.0
 sum -  nocc_ = 1.00000000
 On Iteration in Bisection 1
 a: 1.00000  b:-0.50000

 -0.10875 = (-0.33793 + 0.12042)/2.0
 sum -  nocc_ = 0.00000000
 ef = -0.10875 sum = 1.00000 

 Iter: 29  T:      100.000  val:-0.108753  sumni 0.00000
 ne = 1.0000

 iter:30  failiter:30  energy:     -1.043979143264  total:     -0.847987584527  error:     -0.000000020340
 In Bisection function HOMO = -0.338  LUMO =  1.495

 0.57877 = (-0.33793 + 1.49546)/2.0
 sum -  nocc_ = 1.00000000
 On Iteration in Bisection 0
 a: 1.00000  b:-0.50000

 0.12042 = (-0.33793 + 0.57877)/2.0
 sum -  nocc_ = 1.00000000
 On Iteration in Bisection 1
 a: 1.00000  b:-0.50000

 -0.10875 = (-0.33793 + 0.12042)/2.0
 sum -  nocc_ = 0.00000000
 ef = -0.10875 sum = 1.00000 

 Iter: 30  T:      100.000  val:-0.108753  sumni 0.00000
 ne = 1.0000

 iter:31  failiter:31  energy:     -1.043979154222  total:     -0.847987595485  error:     -0.000000010957
 In Bisection function HOMO = -0.338  LUMO =  1.495

 0.57877 = (-0.33793 + 1.49546)/2.0
 sum -  nocc_ = 1.00000000
 On Iteration in Bisection 0
 a: 1.00000  b:-0.50000

 0.12042 = (-0.33793 + 0.57877)/2.0
 sum -  nocc_ = 1.00000000
 On Iteration in Bisection 1
 a: 1.00000  b:-0.50000

 -0.10875 = (-0.33793 + 0.12042)/2.0
 sum -  nocc_ = 0.00000000
 ef = -0.10875 sum = 1.00000 

 Iter: 31  T:      100.000  val:-0.108754  sumni 0.00000
 ne = 1.0000

 iter:32  failiter:32  energy:     -1.043979160124  total:     -0.847987601387  error:     -0.000000005903
 In Bisection function HOMO = -0.338  LUMO =  1.495

 0.57877 = (-0.33793 + 1.49546)/2.0
 sum -  nocc_ = 1.00000000
 On Iteration in Bisection 0
 a: 1.00000  b:-0.50000

 0.12042 = (-0.33793 + 0.57877)/2.0
 sum -  nocc_ = 1.00000000
 On Iteration in Bisection 1
 a: 1.00000  b:-0.50000

 -0.10875 = (-0.33793 + 0.12042)/2.0
 sum -  nocc_ = 0.00000000
 ef = -0.10875 sum = 1.00000 

 Iter: 32  T:      100.000  val:-0.108754  sumni 0.00000
 ne = 1.0000

 iter:33  failiter:33  energy:     -1.043979163304  total:     -0.847987604567  error:     -0.000000003180
 In Bisection function HOMO = -0.338  LUMO =  1.495

 0.57877 = (-0.33793 + 1.49546)/2.0
 sum -  nocc_ = 1.00000000
 On Iteration in Bisection 0
 a: 1.00000  b:-0.50000

 0.12042 = (-0.33793 + 0.57877)/2.0
 sum -  nocc_ = 1.00000000
 On Iteration in Bisection 1
 a: 1.00000  b:-0.50000

 -0.10875 = (-0.33793 + 0.12042)/2.0
 sum -  nocc_ = 0.00000000
 ef = -0.10875 sum = 1.00000 

 Iter: 33  T:      100.000  val:-0.108754  sumni 0.00000
 ne = 1.0000

 iter:34  failiter:34  energy:     -1.043979165017  total:     -0.847987606280  error:     -0.000000001713
 In Bisection function HOMO = -0.338  LUMO =  1.495

 0.57877 = (-0.33793 + 1.49546)/2.0
 sum -  nocc_ = 1.00000000
 On Iteration in Bisection 0
 a: 1.00000  b:-0.50000

 0.12042 = (-0.33793 + 0.57877)/2.0
 sum -  nocc_ = 1.00000000
 On Iteration in Bisection 1
 a: 1.00000  b:-0.50000

 -0.10875 = (-0.33793 + 0.12042)/2.0
 sum -  nocc_ = 0.00000000
 ef = -0.10875 sum = 1.00000 

 Iter: 34  T:      100.000  val:-0.108754  sumni 0.00000
 ne = 1.0000

 iter:35  failiter:35  energy:     -1.043979165940  total:     -0.847987607203  error:     -0.000000000923
 In Bisection function HOMO = -0.338  LUMO =  1.495

 0.57877 = (-0.33793 + 1.49546)/2.0
 sum -  nocc_ = 1.00000000
 On Iteration in Bisection 0
 a: 1.00000  b:-0.50000

 0.12042 = (-0.33793 + 0.57877)/2.0
 sum -  nocc_ = 1.00000000
 On Iteration in Bisection 1
 a: 1.00000  b:-0.50000

 -0.10875 = (-0.33793 + 0.12042)/2.0
 sum -  nocc_ = 0.00000000
 ef = -0.10875 sum = 1.00000 

 Iter: 35  T:      100.000  val:-0.108754  sumni 0.00000
 ne = 1.0000

 iter:36  failiter:36  energy:     -1.043979166437  total:     -0.847987607700  error:     -0.000000000497
 In Bisection function HOMO = -0.338  LUMO =  1.495

 0.57877 = (-0.33793 + 1.49546)/2.0
 sum -  nocc_ = 1.00000000
 On Iteration in Bisection 0
 a: 1.00000  b:-0.50000

 0.12042 = (-0.33793 + 0.57877)/2.0
 sum -  nocc_ = 1.00000000
 On Iteration in Bisection 1
 a: 1.00000  b:-0.50000

 -0.10875 = (-0.33793 + 0.12042)/2.0
 sum -  nocc_ = 0.00000000
 ef = -0.10875 sum = 1.00000 

 Iter: 36  T:      100.000  val:-0.108754  sumni 0.00000
 ne = 1.0000

 iter:37  failiter:37  energy:     -1.043979166705  total:     -0.847987607968  error:     -0.000000000268
 In Bisection function HOMO = -0.338  LUMO =  1.495

 0.57877 = (-0.33793 + 1.49546)/2.0
 sum -  nocc_ = 1.00000000
 On Iteration in Bisection 0
 a: 1.00000  b:-0.50000

 0.12042 = (-0.33793 + 0.57877)/2.0
 sum -  nocc_ = 1.00000000
 On Iteration in Bisection 1
 a: 1.00000  b:-0.50000

 -0.10875 = (-0.33793 + 0.12042)/2.0
 sum -  nocc_ = 0.00000000
 ef = -0.10875 sum = 1.00000 

 Iter: 37  T:      100.000  val:-0.108754  sumni 0.00000
 ne = 1.0000

 iter:38  failiter:38  energy:     -1.043979166849  total:     -0.847987608112  error:     -0.000000000144
 In Bisection function HOMO = -0.338  LUMO =  1.495

 0.57877 = (-0.33793 + 1.49546)/2.0
 sum -  nocc_ = 1.00000000
 On Iteration in Bisection 0
 a: 1.00000  b:-0.50000

 0.12042 = (-0.33793 + 0.57877)/2.0
 sum -  nocc_ = 1.00000000
 On Iteration in Bisection 1
 a: 1.00000  b:-0.50000

 -0.10875 = (-0.33793 + 0.12042)/2.0
 sum -  nocc_ = 0.00000000
 ef = -0.10875 sum = 1.00000 

 Iter: 38  T:      100.000  val:-0.108754  sumni 0.00000
 ne = 1.0000

 iter:39  failiter:39  energy:     -1.043979166927  total:     -0.847987608190  error:     -0.000000000078
 In Bisection function HOMO = -0.338  LUMO =  1.495

 0.57877 = (-0.33793 + 1.49546)/2.0
 sum -  nocc_ = 1.00000000
 On Iteration in Bisection 0
 a: 1.00000  b:-0.50000

 0.12042 = (-0.33793 + 0.57877)/2.0
 sum -  nocc_ = 1.00000000
 On Iteration in Bisection 1
 a: 1.00000  b:-0.50000

 -0.10875 = (-0.33793 + 0.12042)/2.0
 sum -  nocc_ = 0.00000000
 ef = -0.10875 sum = 1.00000 

 Iter: 39  T:      100.000  val:-0.108754  sumni 0.00000
 ne = 1.0000

 iter:40  failiter:40  energy:     -1.043979166969  total:     -0.847987608232  error:     -0.000000000042
 In Bisection function HOMO = -0.338  LUMO =  1.495

 0.57877 = (-0.33793 + 1.49546)/2.0
 sum -  nocc_ = 1.00000000
 On Iteration in Bisection 0
 a: 1.00000  b:-0.50000

 0.12042 = (-0.33793 + 0.57877)/2.0
 sum -  nocc_ = 1.00000000
 On Iteration in Bisection 1
 a: 1.00000  b:-0.50000

 -0.10875 = (-0.33793 + 0.12042)/2.0
 sum -  nocc_ = 0.00000000
 ef = -0.10875 sum = 1.00000 

 Iter: 40  T:      100.000  val:-0.108754  sumni 0.00000
 ne = 1.0000

 iter:41  failiter:41  energy:     -1.043979166992  total:     -0.847987608255  error:     -0.000000000023
 In Bisection function HOMO = -0.338  LUMO =  1.495

 0.57877 = (-0.33793 + 1.49546)/2.0
 sum -  nocc_ = 1.00000000
 On Iteration in Bisection 0
 a: 1.00000  b:-0.50000

 0.12042 = (-0.33793 + 0.57877)/2.0
 sum -  nocc_ = 1.00000000
 On Iteration in Bisection 1
 a: 1.00000  b:-0.50000

 -0.10875 = (-0.33793 + 0.12042)/2.0
 sum -  nocc_ = 0.00000000
 ef = -0.10875 sum = 1.00000 

 Iter: 41  T:      100.000  val:-0.108754  sumni 0.00000
 ne = 1.0000

 iter:42  failiter:42  energy:     -1.043979167004  total:     -0.847987608267  error:     -0.000000000012
 In Bisection function HOMO = -0.338  LUMO =  1.495

 0.57877 = (-0.33793 + 1.49546)/2.0
 sum -  nocc_ = 1.00000000
 On Iteration in Bisection 0
 a: 1.00000  b:-0.50000

 0.12042 = (-0.33793 + 0.57877)/2.0
 sum -  nocc_ = 1.00000000
 On Iteration in Bisection 1
 a: 1.00000  b:-0.50000

 -0.10875 = (-0.33793 + 0.12042)/2.0
 sum -  nocc_ = 0.00000000
 ef = -0.10875 sum = 1.00000 

 Iter: 42  T:      100.000  val:-0.108754  sumni 0.00000
 ne = 1.0000

 iter:43  failiter:43  energy:     -1.043979167010  total:     -0.847987608273  error:     -0.000000000007
 In Bisection function HOMO = -0.338  LUMO =  1.495

 0.57877 = (-0.33793 + 1.49546)/2.0
 sum -  nocc_ = 1.00000000
 On Iteration in Bisection 0
 a: 1.00000  b:-0.50000

 0.12042 = (-0.33793 + 0.57877)/2.0
 sum -  nocc_ = 1.00000000
 On Iteration in Bisection 1
 a: 1.00000  b:-0.50000

 -0.10875 = (-0.33793 + 0.12042)/2.0
 sum -  nocc_ = 0.00000000
 ef = -0.10875 sum = 1.00000 

 Iter: 43  T:      100.000  val:-0.108754  sumni 0.00000
 ne = 1.0000

 iter:44  failiter:44  energy:     -1.043979167014  total:     -0.847987608277  error:     -0.000000000004
 In Bisection function HOMO = -0.338  LUMO =  1.495

 0.57877 = (-0.33793 + 1.49546)/2.0
 sum -  nocc_ = 1.00000000
 On Iteration in Bisection 0
 a: 1.00000  b:-0.50000

 0.12042 = (-0.33793 + 0.57877)/2.0
 sum -  nocc_ = 1.00000000
 On Iteration in Bisection 1
 a: 1.00000  b:-0.50000

 -0.10875 = (-0.33793 + 0.12042)/2.0
 sum -  nocc_ = 0.00000000
 ef = -0.10875 sum = 1.00000 

 Iter: 44  T:      100.000  val:-0.108754  sumni 0.00000
 ne = 1.0000

 iter:45  failiter:45  energy:     -1.043979167016  total:     -0.847987608279  error:     -0.000000000002
 In Bisection function HOMO = -0.338  LUMO =  1.495

 0.57877 = (-0.33793 + 1.49546)/2.0
 sum -  nocc_ = 1.00000000
 On Iteration in Bisection 0
 a: 1.00000  b:-0.50000

 0.12042 = (-0.33793 + 0.57877)/2.0
 sum -  nocc_ = 1.00000000
 On Iteration in Bisection 1
 a: 1.00000  b:-0.50000

 -0.10875 = (-0.33793 + 0.12042)/2.0
 sum -  nocc_ = 0.00000000
 ef = -0.10875 sum = 1.00000 

 Iter: 45  T:      100.000  val:-0.108754  sumni 0.00000
 ne = 1.0000

 iter:46  failiter:46  energy:     -1.043979167017  total:     -0.847987608280  error:     -0.000000000001
 In Bisection function HOMO = -0.338  LUMO =  1.495

 0.57877 = (-0.33793 + 1.49546)/2.0
 sum -  nocc_ = 1.00000000
 On Iteration in Bisection 0
 a: 1.00000  b:-0.50000

 0.12042 = (-0.33793 + 0.57877)/2.0
 sum -  nocc_ = 1.00000000
 On Iteration in Bisection 1
 a: 1.00000  b:-0.50000

 -0.10875 = (-0.33793 + 0.12042)/2.0
 sum -  nocc_ = 0.00000000
 ef = -0.10875 sum = 1.00000 

 Iter: 46  T:      100.000  val:-0.108754  sumni 0.00000
 ne = 1.0000

 iter:47  failiter:47  energy:     -1.043979167017  total:     -0.847987608280  error:     -0.000000000001
 FTHFEnergy =    -0.847988
 FD_dis[0] = 1.00000000 with -0.337927 eig value
 FD_dis[1] = 0.00000000 with -0.098779 eig value
 FD_dis[2] = 0.00000000 with 0.609333 eig value
 FD_dis[3] = 0.00000000 with 0.674305 eig value
 FD_dis[4] = 0.00000000 with 1.462583 eig value
 FD_dis[5] = 0.00000000 with 1.462583 eig value
 FD_dis[6] = 0.00000000 with 1.462590 eig value
 FD_dis[7] = 0.00000000 with 1.466913 eig value
 FD_dis[8] = 0.00000000 with 1.466913 eig value
 FD_dis[9] = 0.00000000 with 1.495458 eig value
*** PSI4 exiting successfully. Buy a developer a beer!
