    -----------------------------------------------------------------------
          PSI4: An Open-Source Ab Initio Electronic Structure Package
                              PSI 4.0 Driver

               Git: Rev {master} 556e8139d3cfa1f96ccffe2cdf22cc56a185d2b2

    J. M. Turney, A. C. Simmonett, R. M. Parrish, E. G. Hohenstein,
    F. A. Evangelista, J. T. Fermann, B. J. Mintz, L. A. Burns, J. J. Wilke,
    M. L. Abrams, N. J. Russ, M. L. Leininger, C. L. Janssen, E. T. Seidl,
    W. D. Allen, H. F. Schaefer, R. A. King, E. F. Valeev, C. D. Sherrill,
    and T. D. Crawford, WIREs Comput. Mol. Sci. 2, 556-565 (2012)
    (doi: 10.1002/wcms.93)

                         Additional Contributions by
    A. E. DePrince, M. Saitow, U. Bozkaya, A. Yu. Sokolov
    -----------------------------------------------------------------------

    Process ID:  11934
    PSI4DATADIR: /Users/kevinhannon/Programs/psi4cmake/psi4/lib
    Memory level set to 256.000 MB

  ==> Input File <==

--------------------------------------------------------------------------

# PYTHONPATH must include directory above plugin directory.
#     Define either externally or here, then import plugin.
sys.path.insert(0, '/Users/kevinhannon/Programs/Quantum_Programs/Quantum-Programs/GS/')
import scf

molecule {
0 1
H
H 1 0.90000
symmetry c1
units angstrom
}


set {
  basis cc-pvdz
  reference rhf
  scf_type  pk
}

set scf {
  DO_FTHF true
  MAX_ITER 130
  MAX_TEMP 100
  TEMP_INCREMENT 0
  bisect  true
  bisect_iter  40
}
energy('rhf')

energy('scf')


--------------------------------------------------------------------------

*** tstart() called on Kevins-MacBook-Pro.local
*** at Fri Apr 10 18:02:04 2015

/Users/kevinhannon/Programs/Quantum_Programs/Quantum-Programs/GS/scf/scf.so loaded.

*** tstart() called on Kevins-MacBook-Pro.local
*** at Fri Apr 10 18:02:04 2015


         ---------------------------------------------------------
                                   SCF
            by Justin Turney, Rob Parrish, and Andy Simmonett
                              RHF Reference
                        1 Threads,    256 MiB Core
         ---------------------------------------------------------

  ==> Geometry <==

    Molecular point group: c1
    Full point group: D_inf_h

    Geometry (in Angstrom), charge = 0, multiplicity = 1:

       Center              X                  Y                   Z       
    ------------   -----------------  -----------------  -----------------
           H          0.000000000000     0.000000000000    -0.450000000000
           H          0.000000000000     0.000000000000     0.450000000000

  Running in c1 symmetry.

  Rotational constants: A = ************  B =     41.30060  C =     41.30060 [cm^-1]
  Rotational constants: A = ************  B = 1238160.74749  C = 1238160.74749 [MHz]
  Nuclear repulsion =    0.587974676211111

  Charge       = 0
  Multiplicity = 1
  Electrons    = 2
  Nalpha       = 1
  Nbeta        = 1

  ==> Algorithm <==

  SCF Algorithm Type is PK.
  DIIS enabled.
  MOM disabled.
  Fractional occupation disabled.
  Guess Type is CORE.
  Energy threshold   = 1.00e-06
  Density threshold  = 1.00e-06
  Integral threshold = 0.00e+00

  ==> Primary Basis <==

  Basis Set: CC-PVDZ
    Number of shells: 6
    Number of basis function: 10
    Number of Cartesian functions: 10
    Spherical Harmonics?: true
    Max angular momentum: 1

  ==> Pre-Iterations <==

   -------------------------------------------------------
    Irrep   Nso     Nmo     Nalpha   Nbeta   Ndocc  Nsocc
   -------------------------------------------------------
     A         10      10       0       0       0       0
   -------------------------------------------------------
    Total      10      10       1       1       1       0
   -------------------------------------------------------

  Starting with a DF guess...

 OEINTS: Overlap, kinetic, potential, dipole, and quadrupole integrals
         stored in file 35.

  ==> Integral Setup <==

  ==> DFJK: Density-Fitted J/K Matrices <==

    J tasked:                  Yes
    K tasked:                  Yes
    wK tasked:                  No
    OpenMP threads:              1
    Integrals threads:           1
    Memory (MB):               183
    Algorithm:                Core
    Integral Cache:           NONE
    Schwarz Cutoff:          1E-12
    Fitting Condition:       1E-12

   => Auxiliary Basis Set <=

  Basis Set: 
    Number of shells: 18
    Number of basis function: 46
    Number of Cartesian functions: 50
    Spherical Harmonics?: true
    Max angular momentum: 2

  Minimum eigenvalue in the overlap matrix is 9.8206938735E-02.
  Using Symmetric Orthogonalization.
  SCF Guess: Core (One-Electron) Hamiltonian.

  ==> Iterations <==

                           Total Energy        Delta E     RMS |[F,P]|

   @DF-RHF iter   1:    -1.06426077945740   -1.06426e+00   2.18737e-02 
   @DF-RHF iter   2:    -1.11467444513458   -5.04137e-02   3.91783e-03 DIIS
   @DF-RHF iter   3:    -1.11638985971386   -1.71541e-03   1.91615e-04 DIIS
   @DF-RHF iter   4:    -1.11639201013793   -2.15042e-06   1.14647e-05 DIIS
   @DF-RHF iter   5:    -1.11639202516502   -1.50271e-08   1.98623e-08 DIIS

  DF guess converged.

  ==> Integral Setup <==

 MINTS: Wrapper to libmints.
   by Justin Turney

   Calculation information:
      Number of atoms:                   2
      Number of AO shells:               6
      Number of SO shells:               6
      Number of primitives:             10
      Number of atomic orbitals:        10
      Number of basis functions:        10

      Number of irreps:                  1
      Integral cutoff                 0.00e+00
      Number of functions per irrep: [  10 ]

 OEINTS: Overlap, kinetic, potential, dipole, and quadrupole integrals
         stored in file 35.

      Computing two-electron integrals...done
      Computed 512 non-zero two-electron integrals.
        Stored in file 33.

	Batch   1 pq = [       0,      55] index = [             0,1540]
  ==> DiskJK: Disk-Based J/K Matrices <==

    J tasked:                  Yes
    K tasked:                  Yes
    wK tasked:                  No
    Memory (MB):               183
    Schwarz Cutoff:          1E-12

   @RHF iter   6:    -1.11639129988591    7.25279e-07   1.98334e-07 DIIS

  ==> Post-Iterations <==

    Orbital Energies (a.u.)
    -----------------------

    Doubly Occupied:                                                      

       1A     -0.548523  

    Virtual:                                                              

       2A      0.165049     3A      0.517011     4A      0.840439  
       5A      1.283488     6A      1.283488     7A      1.789884  
       8A      1.935995     9A      1.935995    10A      2.949116  

    Final Occupation by Irrep:
              A 
    DOCC [     1 ]

  Energy converged.

  @RHF Final Energy:    -1.11639129988591

   => Energetics <=

    Nuclear Repulsion Energy =              0.5879746762111111
    One-Electron Energy =                  -2.3116858935316502
    Two-Electron Energy =                   0.6073199174346331
    DFT Exchange-Correlation Energy =       0.0000000000000000
    Empirical Dispersion Energy =           0.0000000000000000
    PCM Polarization Energy =               0.0000000000000000
    EFP Energy =                            0.0000000000000000
    Total Energy =                         -1.1163912998859060

    Alert: EFP and PCM quantities not currently incorporated into SCF psivars.

Properties will be evaluated at   0.000000,   0.000000,   0.000000 Bohr
  ==> Properties <==


Properties computed using the SCF density matrix

  Nuclear Dipole Moment: (a.u.)
     X:     0.0000      Y:     0.0000      Z:     0.0000

  Electronic Dipole Moment: (a.u.)
     X:     0.0000      Y:    -0.0000      Z:     0.0000

  Dipole Moment: (a.u.)
     X:     0.0000      Y:    -0.0000      Z:     0.0000     Total:     0.0000

  Dipole Moment: (Debye)
     X:     0.0000      Y:    -0.0000      Z:     0.0000     Total:     0.0000


  Saving occupied orbitals to File 180.

*** tstop() called on Kevins-MacBook-Pro.local at Fri Apr 10 18:02:04 2015
Module time:
	user time   =       0.21 seconds =       0.00 minutes
	system time =       0.01 seconds =       0.00 minutes
	total time  =          0 seconds =       0.00 minutes
Total time:
	user time   =       0.22 seconds =       0.00 minutes
	system time =       0.01 seconds =       0.00 minutes
	total time  =          0 seconds =       0.00 minutes

*** tstart() called on Kevins-MacBook-Pro.local
*** at Fri Apr 10 18:02:04 2015


         ---------------------------------------------------------
                                   SCF
            by Justin Turney, Rob Parrish, and Andy Simmonett
                              RHF Reference
                        1 Threads,    256 MiB Core
         ---------------------------------------------------------

  ==> Geometry <==

    Molecular point group: c1
    Full point group: D_inf_h

    Geometry (in Angstrom), charge = 0, multiplicity = 1:

       Center              X                  Y                   Z       
    ------------   -----------------  -----------------  -----------------
           H          0.000000000000     0.000000000000    -0.450000000000
           H          0.000000000000     0.000000000000     0.450000000000

  Running in c1 symmetry.

  Rotational constants: A = ************  B =     41.30060  C =     41.30060 [cm^-1]
  Rotational constants: A = ************  B = 1238160.74749  C = 1238160.74749 [MHz]
  Nuclear repulsion =    0.587974676211111

  Charge       = 0
  Multiplicity = 1
  Electrons    = 2
  Nalpha       = 1
  Nbeta        = 1

  ==> Algorithm <==

  SCF Algorithm Type is PK.
  DIIS enabled.
  MOM disabled.
  Fractional occupation disabled.
  Guess Type is CORE.
  Energy threshold   = 1.00e-08
  Density threshold  = 1.00e-08
  Integral threshold = 0.00e+00

  ==> Primary Basis <==

  Basis Set: CC-PVDZ
    Number of shells: 6
    Number of basis function: 10
    Number of Cartesian functions: 10
    Spherical Harmonics?: true
    Max angular momentum: 1

  ==> Pre-Iterations <==

   -------------------------------------------------------
    Irrep   Nso     Nmo     Nalpha   Nbeta   Ndocc  Nsocc
   -------------------------------------------------------
     A         10      10       0       0       0       0
   -------------------------------------------------------
    Total      10      10       1       1       1       0
   -------------------------------------------------------

  Starting with a DF guess...

 OEINTS: Overlap, kinetic, potential, dipole, and quadrupole integrals
         stored in file 35.

  ==> Integral Setup <==

  ==> DFJK: Density-Fitted J/K Matrices <==

    J tasked:                  Yes
    K tasked:                  Yes
    wK tasked:                  No
    OpenMP threads:              1
    Integrals threads:           1
    Memory (MB):               183
    Algorithm:                Core
    Integral Cache:           NONE
    Schwarz Cutoff:          1E-12
    Fitting Condition:       1E-12

   => Auxiliary Basis Set <=

  Basis Set: 
    Number of shells: 18
    Number of basis function: 46
    Number of Cartesian functions: 50
    Spherical Harmonics?: true
    Max angular momentum: 2

  Minimum eigenvalue in the overlap matrix is 9.8206938735E-02.
  Using Symmetric Orthogonalization.
  SCF Guess: Core (One-Electron) Hamiltonian.

  ==> Iterations <==

                           Total Energy        Delta E     RMS |[F,P]|

   @DF-RHF iter   1:    -1.06426077945740   -1.06426e+00   2.18737e-02 
   @DF-RHF iter   2:    -1.11467444513458   -5.04137e-02   3.91783e-03 DIIS
   @DF-RHF iter   3:    -1.11638985971386   -1.71541e-03   1.91615e-04 DIIS
   @DF-RHF iter   4:    -1.11639201013793   -2.15042e-06   1.14647e-05 DIIS
   @DF-RHF iter   5:    -1.11639202516502   -1.50271e-08   1.98623e-08 DIIS
   @DF-RHF iter   6:    -1.11639202516507   -4.30767e-14   1.58629e-11 DIIS

  DF guess converged.

  ==> Integral Setup <==

 MINTS: Wrapper to libmints.
   by Justin Turney

   Calculation information:
      Number of atoms:                   2
      Number of AO shells:               6
      Number of SO shells:               6
      Number of primitives:             10
      Number of atomic orbitals:        10
      Number of basis functions:        10

      Number of irreps:                  1
      Integral cutoff                 0.00e+00
      Number of functions per irrep: [  10 ]

 OEINTS: Overlap, kinetic, potential, dipole, and quadrupole integrals
         stored in file 35.

      Computing two-electron integrals...done
      Computed 512 non-zero two-electron integrals.
        Stored in file 33.

	Batch   1 pq = [       0,      55] index = [             0,1540]
  ==> DiskJK: Disk-Based J/K Matrices <==

    J tasked:                  Yes
    K tasked:                  Yes
    wK tasked:                  No
    Memory (MB):               183
    Schwarz Cutoff:          1E-12

   @RHF iter   7:    -1.11639129988591    7.25279e-07   1.98329e-07 DIIS
   @RHF iter   8:    -1.11639129988802   -2.11542e-12   2.84287e-08 DIIS
   @RHF iter   9:    -1.11639129988807   -4.44089e-14   2.15106e-10 DIIS

  ==> Post-Iterations <==

    Orbital Energies (a.u.)
    -----------------------

    Doubly Occupied:                                                      

       1A     -0.548523  

    Virtual:                                                              

       2A      0.165049     3A      0.517011     4A      0.840439  
       5A      1.283488     6A      1.283488     7A      1.789883  
       8A      1.935995     9A      1.935995    10A      2.949116  

    Final Occupation by Irrep:
              A 
    DOCC [     1 ]

  Energy converged.

  @RHF Final Energy:    -1.11639129988807

   => Energetics <=

    Nuclear Repulsion Energy =              0.5879746762111111
    One-Electron Energy =                  -2.3116855117035180
    Two-Electron Energy =                   0.6073195356043415
    DFT Exchange-Correlation Energy =       0.0000000000000000
    Empirical Dispersion Energy =           0.0000000000000000
    PCM Polarization Energy =               0.0000000000000000
    EFP Energy =                            0.0000000000000000
    Total Energy =                         -1.1163912998880654

    Alert: EFP and PCM quantities not currently incorporated into SCF psivars.

Properties will be evaluated at   0.000000,   0.000000,   0.000000 Bohr
  ==> Properties <==


Properties computed using the SCF density matrix

  Nuclear Dipole Moment: (a.u.)
     X:     0.0000      Y:     0.0000      Z:     0.0000

  Electronic Dipole Moment: (a.u.)
     X:    -0.0000      Y:    -0.0000      Z:    -0.0000

  Dipole Moment: (a.u.)
     X:    -0.0000      Y:    -0.0000      Z:    -0.0000     Total:     0.0000

  Dipole Moment: (Debye)
     X:    -0.0000      Y:    -0.0000      Z:    -0.0000     Total:     0.0000


  Saving occupied orbitals to File 180.

*** tstop() called on Kevins-MacBook-Pro.local at Fri Apr 10 18:02:05 2015
Module time:
	user time   =       0.21 seconds =       0.00 minutes
	system time =       0.01 seconds =       0.00 minutes
	total time  =          1 seconds =       0.02 minutes
Total time:
	user time   =       0.44 seconds =       0.01 minutes
	system time =       0.02 seconds =       0.00 minutes
	total time  =          1 seconds =       0.02 minutes
Reading options from the SCF block
Calling plugin scf.so.
    Molecular point group: c1
    Full point group: D_inf_h

    Geometry (in Angstrom), charge = 0, multiplicity = 1:

       Center              X                  Y                   Z       
    ------------   -----------------  -----------------  -----------------
           H          0.000000000000     0.000000000000    -0.450000000000
           H          0.000000000000     0.000000000000     0.450000000000


    Nuclear repulsion energy:       0.58797468

  ## Overlap (Symmetry 0) ##
  Irrep: 1 Size: 10 x 10

                 1                   2                   3                   4                   5

    1     1.00000000000000     0.68486025149275     0.00000000000000     0.00000000000000     0.00000000000000
    2     0.68486025149275     1.00000000000000     0.00000000000000     0.00000000000000     0.00000000000000
    3     0.00000000000000     0.00000000000000     1.00000000000000     0.00000000000000     0.00000000000000
    4     0.00000000000000     0.00000000000000     0.00000000000000     1.00000000000000     0.00000000000000
    5     0.00000000000000     0.00000000000000     0.00000000000000     0.00000000000000     1.00000000000000
    6     0.44628790918087     0.51597698991084     0.47894101791603     0.00000000000000     0.00000000000000
    7     0.51597698991084     0.83824377940006     0.18103338309610     0.00000000000000     0.00000000000000
    8    -0.47894101791603    -0.18103338309610    -0.38538602378664     0.00000000000000     0.00000000000000
    9     0.00000000000000     0.00000000000000     0.00000000000000     0.34943193662641     0.00000000000000
   10     0.00000000000000     0.00000000000000     0.00000000000000     0.00000000000000     0.34943193662641

                 6                   7                   8                   9                  10

    1     0.44628790918087     0.51597698991084    -0.47894101791603     0.00000000000000     0.00000000000000
    2     0.51597698991084     0.83824377940006    -0.18103338309610     0.00000000000000     0.00000000000000
    3     0.47894101791603     0.18103338309610    -0.38538602378664     0.00000000000000     0.00000000000000
    4     0.00000000000000     0.00000000000000     0.00000000000000     0.34943193662641     0.00000000000000
    5     0.00000000000000     0.00000000000000     0.00000000000000     0.00000000000000     0.34943193662641
    6     1.00000000000000     0.68486025149275    -0.00000000000000     0.00000000000000     0.00000000000000
    7     0.68486025149275     1.00000000000000     0.00000000000000     0.00000000000000     0.00000000000000
    8    -0.00000000000000     0.00000000000000     1.00000000000000     0.00000000000000     0.00000000000000
    9     0.00000000000000     0.00000000000000     0.00000000000000     1.00000000000000     0.00000000000000
   10     0.00000000000000     0.00000000000000     0.00000000000000     0.00000000000000     1.00000000000000



  ## Kinetic (Symmetry 0) ##
  Irrep: 1 Size: 10 x 10

                 1                   2                   3                   4                   5

    1     0.96945722711242     0.20123413106538    -0.00000000000000     0.00000000000000     0.00000000000000
    2     0.20123413106538     0.18300000000000     0.00000000000000     0.00000000000000     0.00000000000000
    3    -0.00000000000000     0.00000000000000     1.81750000000000     0.00000000000000     0.00000000000000
    4     0.00000000000000     0.00000000000000     0.00000000000000     1.81750000000000     0.00000000000000
    5     0.00000000000000     0.00000000000000     0.00000000000000     0.00000000000000     1.81750000000000
    6     0.15412347632710     0.12276310056784     0.45652899643384     0.00000000000000     0.00000000000000
    7     0.12276310056784     0.13535419850563     0.08313173446953     0.00000000000000     0.00000000000000
    8    -0.45652899643384    -0.08313173446953    -0.94006206538258     0.00000000000000     0.00000000000000
    9     0.00000000000000     0.00000000000000     0.00000000000000     0.36798621620836     0.00000000000000
   10     0.00000000000000     0.00000000000000     0.00000000000000     0.00000000000000     0.36798621620836

                 6                   7                   8                   9                  10

    1     0.15412347632710     0.12276310056784    -0.45652899643384     0.00000000000000     0.00000000000000
    2     0.12276310056784     0.13535419850563    -0.08313173446953     0.00000000000000     0.00000000000000
    3     0.45652899643384     0.08313173446953    -0.94006206538258     0.00000000000000     0.00000000000000
    4     0.00000000000000     0.00000000000000     0.00000000000000     0.36798621620836     0.00000000000000
    5     0.00000000000000     0.00000000000000     0.00000000000000     0.00000000000000     0.36798621620836
    6     0.96945722711242     0.20123413106538     0.00000000000000     0.00000000000000     0.00000000000000
    7     0.20123413106538     0.18300000000000     0.00000000000000     0.00000000000000     0.00000000000000
    8     0.00000000000000     0.00000000000000     1.81750000000000     0.00000000000000     0.00000000000000
    9     0.00000000000000     0.00000000000000     0.00000000000000     1.81750000000000     0.00000000000000
   10     0.00000000000000     0.00000000000000     0.00000000000000     0.00000000000000     1.81750000000000



  ## Potential (Symmetry 0) ##
  Irrep: 1 Size: 10 x 10

                 1                   2                   3                   4                   5

    1    -1.95672700950040    -1.02732347693133    -0.20194062100635     0.00000000000000     0.00000000000000
    2    -1.02732347693133    -1.00729885232088    -0.16762841893705     0.00000000000000     0.00000000000000
    3    -0.20194062100635    -0.16762841893705    -1.60703462770008     0.00000000000000     0.00000000000000
    4     0.00000000000000     0.00000000000000     0.00000000000000    -1.42563488804141     0.00000000000000
    5     0.00000000000000     0.00000000000000     0.00000000000000     0.00000000000000    -1.42563488804141
    6    -0.84623728033779    -0.80261770889518    -0.97252294790185     0.00000000000000     0.00000000000000
    7    -0.80261770889518    -0.88226931613622    -0.38371326825066     0.00000000000000     0.00000000000000
    8     0.97252294790185     0.38371326825066     0.75471202039881     0.00000000000000     0.00000000000000
    9     0.00000000000000     0.00000000000000     0.00000000000000    -0.52565772687199     0.00000000000000
   10     0.00000000000000     0.00000000000000     0.00000000000000     0.00000000000000    -0.52565772687199

                 6                   7                   8                   9                  10

    1    -0.84623728033779    -0.80261770889518     0.97252294790185     0.00000000000000     0.00000000000000
    2    -0.80261770889518    -0.88226931613622     0.38371326825066     0.00000000000000     0.00000000000000
    3    -0.97252294790185    -0.38371326825066     0.75471202039881     0.00000000000000     0.00000000000000
    4     0.00000000000000     0.00000000000000     0.00000000000000    -0.52565772687199     0.00000000000000
    5     0.00000000000000     0.00000000000000     0.00000000000000     0.00000000000000    -0.52565772687199
    6    -1.95672700950040    -1.02732347693133     0.20194062100635     0.00000000000000     0.00000000000000
    7    -1.02732347693133    -1.00729885232088     0.16762841893705     0.00000000000000     0.00000000000000
    8     0.20194062100635     0.16762841893705    -1.60703462770008     0.00000000000000     0.00000000000000
    9     0.00000000000000     0.00000000000000     0.00000000000000    -1.42563488804141     0.00000000000000
   10     0.00000000000000     0.00000000000000     0.00000000000000     0.00000000000000    -1.42563488804141



  ## One Electron Ints (Symmetry 0) ##
  Irrep: 1 Size: 10 x 10

                 1                   2                   3                   4                   5

    1    -0.98726978238798    -0.82608934586595    -0.20194062100635     0.00000000000000     0.00000000000000
    2    -0.82608934586595    -0.82429885232088    -0.16762841893705     0.00000000000000     0.00000000000000
    3    -0.20194062100635    -0.16762841893705     0.21046537229992     0.00000000000000     0.00000000000000
    4     0.00000000000000     0.00000000000000     0.00000000000000     0.39186511195859     0.00000000000000
    5     0.00000000000000     0.00000000000000     0.00000000000000     0.00000000000000     0.39186511195859
    6    -0.69211380401069    -0.67985460832734    -0.51599395146801     0.00000000000000     0.00000000000000
    7    -0.67985460832734    -0.74691511763059    -0.30058153378114     0.00000000000000     0.00000000000000
    8     0.51599395146801     0.30058153378114    -0.18535004498377     0.00000000000000     0.00000000000000
    9     0.00000000000000     0.00000000000000     0.00000000000000    -0.15767151066363     0.00000000000000
   10     0.00000000000000     0.00000000000000     0.00000000000000     0.00000000000000    -0.15767151066363

                 6                   7                   8                   9                  10

    1    -0.69211380401069    -0.67985460832734     0.51599395146801     0.00000000000000     0.00000000000000
    2    -0.67985460832734    -0.74691511763059     0.30058153378114     0.00000000000000     0.00000000000000
    3    -0.51599395146801    -0.30058153378114    -0.18535004498377     0.00000000000000     0.00000000000000
    4     0.00000000000000     0.00000000000000     0.00000000000000    -0.15767151066363     0.00000000000000
    5     0.00000000000000     0.00000000000000     0.00000000000000     0.00000000000000    -0.15767151066363
    6    -0.98726978238798    -0.82608934586595     0.20194062100635     0.00000000000000     0.00000000000000
    7    -0.82608934586595    -0.82429885232088     0.16762841893705     0.00000000000000     0.00000000000000
    8     0.20194062100635     0.16762841893705     0.21046537229992     0.00000000000000     0.00000000000000
    9     0.00000000000000     0.00000000000000     0.00000000000000     0.39186511195859     0.00000000000000
   10     0.00000000000000     0.00000000000000     0.00000000000000     0.00000000000000     0.39186511195859




	There are 0 unique integrals

  ## Fock (Symmetry 0) ##
  Irrep: 1 Size: 10 x 10

                 1                   2                   3                   4                   5

    1    -0.31789190667430    -0.27075045994756     0.26038524061613    -0.00000000000000     0.00000000000000
    2    -0.27075045994756    -0.35047152234041     0.18036461294972     0.00000000000000     0.00000000000000
    3     0.26038524061613     0.18036461294972     0.83277591569207     0.00000000000000     0.00000000000000
    4    -0.00000000000000     0.00000000000000     0.00000000000000     0.50912625229638     0.00000000000000
    5     0.00000000000000     0.00000000000000     0.00000000000000     0.00000000000000     0.50912625229638
    6    -0.45864616775460    -0.16338387929646    -0.73356285952553    -0.00000000000000     0.00000000000000
    7    -0.16338387929646    -0.15311365162414    -0.16519734093610     0.00000000000000     0.00000000000000
    8     0.73356285952553     0.16519734093610     0.33873748081581    -0.00000000000000     0.00000000000000
    9     0.00000000000000     0.00000000000000     0.00000000000000    -0.33557648299091     0.00000000000000
   10     0.00000000000000     0.00000000000000     0.00000000000000     0.00000000000000    -0.33557648299091

                 6                   7                   8                   9                  10

    1    -0.45864616775460    -0.16338387929646     0.73356285952553     0.00000000000000     0.00000000000000
    2    -0.16338387929646    -0.15311365162414     0.16519734093610     0.00000000000000     0.00000000000000
    3    -0.73356285952553    -0.16519734093610     0.33873748081581     0.00000000000000     0.00000000000000
    4    -0.00000000000000     0.00000000000000    -0.00000000000000    -0.33557648299091     0.00000000000000
    5     0.00000000000000     0.00000000000000     0.00000000000000     0.00000000000000    -0.33557648299091
    6    -0.31789190667430    -0.27075045994756    -0.26038524061613    -0.00000000000000     0.00000000000000
    7    -0.27075045994756    -0.35047152234041    -0.18036461294972    -0.00000000000000     0.00000000000000
    8    -0.26038524061613    -0.18036461294972     0.83277591569207     0.00000000000000     0.00000000000000
    9    -0.00000000000000    -0.00000000000000     0.00000000000000     0.50912625229638     0.00000000000000
   10     0.00000000000000     0.00000000000000     0.00000000000000     0.00000000000000     0.50912625229638



  ## C (Symmetry 0) ##
  Irrep: 1 Size: 10 x 10

                 1                   2                   3                   4                   5

    1     1.33137078282683     0.53963436357386     0.16514719111771     0.52394611579911     0.31632110689423
    2    -0.90954122238638    -1.17492379419036    -0.00504397464791     0.13341915073097     0.04463198225279
    3     0.62902754253531    -0.82938679178092     0.33654726187313     0.52269684135093     0.41024277638410
    4     0.38840120811231    -0.61703858930837    -0.14141810833334    -0.00000000000000     0.13398315959813
    5    -0.06743096958355    -0.01617020055153    -0.11464325541018     0.71103393620534    -0.21452725255242
    6    -0.32899187599040     0.17181952113982    -0.50471595626127    -0.62696826296805    -1.13940484415990
    7    -0.08729440982751     0.67046698134294     0.93394267910123    -0.07663351276364     0.28980596550622
    8     0.50688706174451    -0.20067187226765     0.12033789022785     1.11627367612708     0.27112498693203
    9    -0.07006838741780     0.11131504749308     0.02551212147550     0.00000000000000    -0.74269186108597
   10     0.37378154422576     0.08963422252298     0.63548742227699    -0.12827200397078     0.03870116346078

                 6                   7                   8                   9                  10

    1     0.91489819152070     0.21070606090260    -0.45650307715309    -0.33307056252099     0.31632110689423
    2     1.06039797492891     0.38092590652188     1.38317399388783    -0.10648716889123     0.04463198225279
    3     0.85475976107146    -0.65110443406692    -0.17862952151939    -0.27514675628230     0.41024277638410
    4    -0.38840120811231     0.61703858930838    -0.14141810833333     0.00000000000000    -0.13398315959813
    5     0.06743096958355     0.01617020055153    -0.11464325541018     0.71103393620534    -0.21452725255242
    6    -0.39313133313194     0.12116244739181     0.45984527628040    -0.06057526573336    -1.13940484415990
    7    -1.08562275062617    -0.11800854742513    -1.63235319724699     0.25150920965413     0.28980596550622
    8     0.67192069518958    -0.07032900201414    -0.00488366466350    -0.95267051857528     0.27112498693203
    9     0.07006838741780    -0.11131504749308     0.02551212147550    -0.00000000000000     0.74269186108598
   10    -0.37378154422576    -0.08963422252298     0.63548742227699    -0.12827200397078     0.03870116346078




 In Bisection function HOMO = -1.182  LUMO =  1.805

 0.31125 = (-1.18237 + 1.80488)/2.0
 sum -  nocc_ = 5.00000000
 On Iteration in Bisection 0
 a: 5.00000  b:-0.50000

 -0.43556 = (-1.18237 + 0.31125)/2.0
 sum -  nocc_ = 1.00000000
 On Iteration in Bisection 1
 a: 1.00000  b:-0.50000

 -0.80896 = (-1.18237 + -0.43556)/2.0
 sum -  nocc_ = 0.00000000
 ef = -0.80896 sum = 1.00000 

 Iter: 0  T:      100.000  val:-0.808960  sumni 0.00000
 ne = 1.0000

Nuc Replusion =       0.587974676211
 1st iteration =       0.475110894788
 In Bisection function HOMO = -0.182  LUMO =  2.752

 1.28505 = (-0.18168 + 2.75179)/2.0
 sum -  nocc_ = 5.00000000
 On Iteration in Bisection 0
 a: 5.00000  b:-0.50000

 0.55168 = (-0.18168 + 1.28505)/2.0
 sum -  nocc_ = 2.00000000
 On Iteration in Bisection 1
 a: 2.00000  b:-0.50000

 0.18500 = (-0.18168 + 0.55168)/2.0
 sum -  nocc_ = 1.00000000
 On Iteration in Bisection 2
 a: 1.00000  b:-0.50000

 0.00166 = (-0.18168 + 0.18500)/2.0
 sum -  nocc_ = 0.00000000
 ef = 0.00166 sum = 1.00000 

 Iter: 0  T:      100.000  val:0.001658  sumni 0.00000
 ne = 1.0000

 iter:1  failiter:1  energy:     -1.293652416394  total:     -0.705677740183  error:     -0.177261116506
 In Bisection function HOMO = -0.556  LUMO =  2.915

 1.17942 = (-0.55604 + 2.91488)/2.0
 sum -  nocc_ = 3.00000000
 On Iteration in Bisection 0
 a: 3.00000  b:-0.50000

 0.31169 = (-0.55604 + 1.17942)/2.0
 sum -  nocc_ = 1.00000000
 On Iteration in Bisection 1
 a: 1.00000  b:-0.50000

 -0.12217 = (-0.55604 + 0.31169)/2.0
 sum -  nocc_ = 0.00000000
 ef = -0.12217 sum = 1.00000 

 Iter: 1  T:      100.000  val:-0.122172  sumni 0.00000
 ne = 1.0000

 iter:2  failiter:2  energy:     -1.707872338068  total:     -1.119897661857  error:     -0.414219921674
 In Bisection function HOMO = -0.551  LUMO =  2.943

 1.19602 = (-0.55134 + 2.94338)/2.0
 sum -  nocc_ = 3.00000000
 On Iteration in Bisection 0
 a: 3.00000  b:-0.50000

 0.32234 = (-0.55134 + 1.19602)/2.0
 sum -  nocc_ = 1.00000000
 On Iteration in Bisection 1
 a: 1.00000  b:-0.50000

 -0.11450 = (-0.55134 + 0.32234)/2.0
 sum -  nocc_ = 0.00000000
 ef = -0.11450 sum = 1.00000 

 Iter: 2  T:      100.000  val:-0.114503  sumni 0.00000
 ne = 1.0000

 iter:3  failiter:3  energy:     -1.706633225601  total:     -1.118658549390  error:      0.001239112466
 In Bisection function HOMO = -0.549  LUMO =  2.948

 1.19960 = (-0.54900 + 2.94819)/2.0
 sum -  nocc_ = 3.00000000
 On Iteration in Bisection 0
 a: 3.00000  b:-0.50000

 0.32530 = (-0.54900 + 1.19960)/2.0
 sum -  nocc_ = 1.00000000
 On Iteration in Bisection 1
 a: 1.00000  b:-0.50000

 -0.11185 = (-0.54900 + 0.32530)/2.0
 sum -  nocc_ = 0.00000000
 ef = -0.11185 sum = 1.00000 

 Iter: 3  T:      100.000  val:-0.111848  sumni 0.00000
 ne = 1.0000

 iter:4  failiter:4  energy:     -1.704750125505  total:     -1.116775449294  error:      0.001883100096
 In Bisection function HOMO = -0.549  LUMO =  2.949

 1.20017 = (-0.54861 + 2.94896)/2.0
 sum -  nocc_ = 3.00000000
 On Iteration in Bisection 0
 a: 3.00000  b:-0.50000

 0.32578 = (-0.54861 + 1.20017)/2.0
 sum -  nocc_ = 1.00000000
 On Iteration in Bisection 1
 a: 1.00000  b:-0.50000

 -0.11141 = (-0.54861 + 0.32578)/2.0
 sum -  nocc_ = 0.00000000
 ef = -0.11141 sum = 1.00000 

 Iter: 4  T:      100.000  val:-0.111410  sumni 0.00000
 ne = 1.0000

 iter:5  failiter:5  energy:     -1.704432736739  total:     -1.116458060527  error:      0.000317388767
 In Bisection function HOMO = -0.549  LUMO =  2.949

 1.20027 = (-0.54854 + 2.94909)/2.0
 sum -  nocc_ = 3.00000000
 On Iteration in Bisection 0
 a: 3.00000  b:-0.50000

 0.32587 = (-0.54854 + 1.20027)/2.0
 sum -  nocc_ = 1.00000000
 On Iteration in Bisection 1
 a: 1.00000  b:-0.50000

 -0.11134 = (-0.54854 + 0.32587)/2.0
 sum -  nocc_ = 0.00000000
 ef = -0.11134 sum = 1.00000 

 Iter: 5  T:      100.000  val:-0.111335  sumni 0.00000
 ne = 1.0000

 iter:6  failiter:6  energy:     -1.704378078714  total:     -1.116403402503  error:      0.000054658024
 In Bisection function HOMO = -0.549  LUMO =  2.949

 1.20029 = (-0.54853 + 2.94911)/2.0
 sum -  nocc_ = 3.00000000
 On Iteration in Bisection 0
 a: 3.00000  b:-0.50000

 0.32588 = (-0.54853 + 1.20029)/2.0
 sum -  nocc_ = 1.00000000
 On Iteration in Bisection 1
 a: 1.00000  b:-0.50000

 -0.11132 = (-0.54853 + 0.32588)/2.0
 sum -  nocc_ = 0.00000000
 ef = -0.11132 sum = 1.00000 

 Iter: 6  T:      100.000  val:-0.111321  sumni 0.00000
 ne = 1.0000

 iter:7  failiter:7  energy:     -1.704368229826  total:     -1.116393553615  error:      0.000009848889
 In Bisection function HOMO = -0.549  LUMO =  2.949

 1.20030 = (-0.54852 + 2.94911)/2.0
 sum -  nocc_ = 3.00000000
 On Iteration in Bisection 0
 a: 3.00000  b:-0.50000

 0.32589 = (-0.54852 + 1.20030)/2.0
 sum -  nocc_ = 1.00000000
 On Iteration in Bisection 1
 a: 1.00000  b:-0.50000

 -0.11132 = (-0.54852 + 0.32589)/2.0
 sum -  nocc_ = 0.00000000
 ef = -0.11132 sum = 1.00000 

 Iter: 7  T:      100.000  val:-0.111319  sumni 0.00000
 ne = 1.0000

 iter:8  failiter:8  energy:     -1.704366402606  total:     -1.116391726395  error:      0.000001827220
 In Bisection function HOMO = -0.549  LUMO =  2.949

 1.20030 = (-0.54852 + 2.94912)/2.0
 sum -  nocc_ = 3.00000000
 On Iteration in Bisection 0
 a: 3.00000  b:-0.50000

 0.32589 = (-0.54852 + 1.20030)/2.0
 sum -  nocc_ = 1.00000000
 On Iteration in Bisection 1
 a: 1.00000  b:-0.50000

 -0.11132 = (-0.54852 + 0.32589)/2.0
 sum -  nocc_ = 0.00000000
 ef = -0.11132 sum = 1.00000 

 Iter: 8  T:      100.000  val:-0.111318  sumni 0.00000
 ne = 1.0000

 iter:9  failiter:9  energy:     -1.704366057612  total:     -1.116391381401  error:      0.000000344994
 In Bisection function HOMO = -0.549  LUMO =  2.949

 1.20030 = (-0.54852 + 2.94912)/2.0
 sum -  nocc_ = 3.00000000
 On Iteration in Bisection 0
 a: 3.00000  b:-0.50000

 0.32589 = (-0.54852 + 1.20030)/2.0
 sum -  nocc_ = 1.00000000
 On Iteration in Bisection 1
 a: 1.00000  b:-0.50000

 -0.11132 = (-0.54852 + 0.32589)/2.0
 sum -  nocc_ = 0.00000000
 ef = -0.11132 sum = 1.00000 

 Iter: 9  T:      100.000  val:-0.111318  sumni 0.00000
 ne = 1.0000

 iter:10  failiter:10  energy:     -1.704365991775  total:     -1.116391315564  error:      0.000000065837
 In Bisection function HOMO = -0.549  LUMO =  2.949

 1.20030 = (-0.54852 + 2.94912)/2.0
 sum -  nocc_ = 3.00000000
 On Iteration in Bisection 0
 a: 3.00000  b:-0.50000

 0.32589 = (-0.54852 + 1.20030)/2.0
 sum -  nocc_ = 1.00000000
 On Iteration in Bisection 1
 a: 1.00000  b:-0.50000

 -0.11132 = (-0.54852 + 0.32589)/2.0
 sum -  nocc_ = 0.00000000
 ef = -0.11132 sum = 1.00000 

 Iter: 10  T:      100.000  val:-0.111318  sumni 0.00000
 ne = 1.0000

 iter:11  failiter:11  energy:     -1.704365979126  total:     -1.116391302915  error:      0.000000012649
 In Bisection function HOMO = -0.549  LUMO =  2.949

 1.20030 = (-0.54852 + 2.94912)/2.0
 sum -  nocc_ = 3.00000000
 On Iteration in Bisection 0
 a: 3.00000  b:-0.50000

 0.32589 = (-0.54852 + 1.20030)/2.0
 sum -  nocc_ = 1.00000000
 On Iteration in Bisection 1
 a: 1.00000  b:-0.50000

 -0.11132 = (-0.54852 + 0.32589)/2.0
 sum -  nocc_ = 0.00000000
 ef = -0.11132 sum = 1.00000 

 Iter: 11  T:      100.000  val:-0.111318  sumni 0.00000
 ne = 1.0000

 iter:12  failiter:12  energy:     -1.704365976685  total:     -1.116391300474  error:      0.000000002441
 In Bisection function HOMO = -0.549  LUMO =  2.949

 1.20030 = (-0.54852 + 2.94912)/2.0
 sum -  nocc_ = 3.00000000
 On Iteration in Bisection 0
 a: 3.00000  b:-0.50000

 0.32589 = (-0.54852 + 1.20030)/2.0
 sum -  nocc_ = 1.00000000
 On Iteration in Bisection 1
 a: 1.00000  b:-0.50000

 -0.11132 = (-0.54852 + 0.32589)/2.0
 sum -  nocc_ = 0.00000000
 ef = -0.11132 sum = 1.00000 

 Iter: 12  T:      100.000  val:-0.111318  sumni 0.00000
 ne = 1.0000

 iter:13  failiter:13  energy:     -1.704365976213  total:     -1.116391300002  error:      0.000000000472
 In Bisection function HOMO = -0.549  LUMO =  2.949

 1.20030 = (-0.54852 + 2.94912)/2.0
 sum -  nocc_ = 3.00000000
 On Iteration in Bisection 0
 a: 3.00000  b:-0.50000

 0.32589 = (-0.54852 + 1.20030)/2.0
 sum -  nocc_ = 1.00000000
 On Iteration in Bisection 1
 a: 1.00000  b:-0.50000

 -0.11132 = (-0.54852 + 0.32589)/2.0
 sum -  nocc_ = 0.00000000
 ef = -0.11132 sum = 1.00000 

 Iter: 13  T:      100.000  val:-0.111318  sumni 0.00000
 ne = 1.0000

 iter:14  failiter:14  energy:     -1.704365976121  total:     -1.116391299910  error:      0.000000000092
 In Bisection function HOMO = -0.549  LUMO =  2.949

 1.20030 = (-0.54852 + 2.94912)/2.0
 sum -  nocc_ = 3.00000000
 On Iteration in Bisection 0
 a: 3.00000  b:-0.50000

 0.32589 = (-0.54852 + 1.20030)/2.0
 sum -  nocc_ = 1.00000000
 On Iteration in Bisection 1
 a: 1.00000  b:-0.50000

 -0.11132 = (-0.54852 + 0.32589)/2.0
 sum -  nocc_ = 0.00000000
 ef = -0.11132 sum = 1.00000 

 Iter: 14  T:      100.000  val:-0.111318  sumni 0.00000
 ne = 1.0000

 iter:15  failiter:15  energy:     -1.704365976103  total:     -1.116391299892  error:      0.000000000018
 In Bisection function HOMO = -0.549  LUMO =  2.949

 1.20030 = (-0.54852 + 2.94912)/2.0
 sum -  nocc_ = 3.00000000
 On Iteration in Bisection 0
 a: 3.00000  b:-0.50000

 0.32589 = (-0.54852 + 1.20030)/2.0
 sum -  nocc_ = 1.00000000
 On Iteration in Bisection 1
 a: 1.00000  b:-0.50000

 -0.11132 = (-0.54852 + 0.32589)/2.0
 sum -  nocc_ = 0.00000000
 ef = -0.11132 sum = 1.00000 

 Iter: 15  T:      100.000  val:-0.111318  sumni 0.00000
 ne = 1.0000

 iter:16  failiter:16  energy:     -1.704365976100  total:     -1.116391299889  error:      0.000000000003
 In Bisection function HOMO = -0.549  LUMO =  2.949

 1.20030 = (-0.54852 + 2.94912)/2.0
 sum -  nocc_ = 3.00000000
 On Iteration in Bisection 0
 a: 3.00000  b:-0.50000

 0.32589 = (-0.54852 + 1.20030)/2.0
 sum -  nocc_ = 1.00000000
 On Iteration in Bisection 1
 a: 1.00000  b:-0.50000

 -0.11132 = (-0.54852 + 0.32589)/2.0
 sum -  nocc_ = 0.00000000
 ef = -0.11132 sum = 1.00000 

 Iter: 16  T:      100.000  val:-0.111318  sumni 0.00000
 ne = 1.0000

 iter:17  failiter:17  energy:     -1.704365976099  total:     -1.116391299888  error:      0.000000000001
 FTHFEnergy =    -1.116391
 FD_dis[0] = 1.00000000 with -0.548523 eig value
 FD_dis[1] = 0.00000000 with 0.165049 eig value
 FD_dis[2] = 0.00000000 with 0.517011 eig value
 FD_dis[3] = 0.00000000 with 0.840439 eig value
 FD_dis[4] = 0.00000000 with 1.283488 eig value
 FD_dis[5] = 0.00000000 with 1.283488 eig value
 FD_dis[6] = 0.00000000 with 1.789883 eig value
 FD_dis[7] = 0.00000000 with 1.935995 eig value
 FD_dis[8] = 0.00000000 with 1.935995 eig value
 FD_dis[9] = 0.00000000 with 2.949116 eig value
*** PSI4 exiting successfully. Buy a developer a beer!
