    -----------------------------------------------------------------------
          PSI4: An Open-Source Ab Initio Electronic Structure Package
                              PSI 4.0 Driver

               Git: Rev {master} 556e8139d3cfa1f96ccffe2cdf22cc56a185d2b2

    J. M. Turney, A. C. Simmonett, R. M. Parrish, E. G. Hohenstein,
    F. A. Evangelista, J. T. Fermann, B. J. Mintz, L. A. Burns, J. J. Wilke,
    M. L. Abrams, N. J. Russ, M. L. Leininger, C. L. Janssen, E. T. Seidl,
    W. D. Allen, H. F. Schaefer, R. A. King, E. F. Valeev, C. D. Sherrill,
    and T. D. Crawford, WIREs Comput. Mol. Sci. 2, 556-565 (2012)
    (doi: 10.1002/wcms.93)

                         Additional Contributions by
    A. E. DePrince, M. Saitow, U. Bozkaya, A. Yu. Sokolov
    -----------------------------------------------------------------------

    Process ID:  11937
    PSI4DATADIR: /Users/kevinhannon/Programs/psi4cmake/psi4/lib
    Memory level set to 256.000 MB

  ==> Input File <==

--------------------------------------------------------------------------

# PYTHONPATH must include directory above plugin directory.
#     Define either externally or here, then import plugin.
sys.path.insert(0, '/Users/kevinhannon/Programs/Quantum_Programs/Quantum-Programs/GS/')
import scf

molecule {
0 1
H
H 1 1.20000
symmetry c1
units angstrom
}


set {
  basis cc-pvdz
  reference rhf
  scf_type  pk
}

set scf {
  DO_FTHF true
  MAX_ITER 130
  MAX_TEMP 100
  TEMP_INCREMENT 0
  bisect  true
  bisect_iter  40
}
energy('rhf')

energy('scf')


--------------------------------------------------------------------------

*** tstart() called on Kevins-MacBook-Pro.local
*** at Fri Apr 10 18:02:06 2015

/Users/kevinhannon/Programs/Quantum_Programs/Quantum-Programs/GS/scf/scf.so loaded.

*** tstart() called on Kevins-MacBook-Pro.local
*** at Fri Apr 10 18:02:06 2015


         ---------------------------------------------------------
                                   SCF
            by Justin Turney, Rob Parrish, and Andy Simmonett
                              RHF Reference
                        1 Threads,    256 MiB Core
         ---------------------------------------------------------

  ==> Geometry <==

    Molecular point group: c1
    Full point group: D_inf_h

    Geometry (in Angstrom), charge = 0, multiplicity = 1:

       Center              X                  Y                   Z       
    ------------   -----------------  -----------------  -----------------
           H          0.000000000000     0.000000000000    -0.600000000000
           H          0.000000000000     0.000000000000     0.600000000000

  Running in c1 symmetry.

  Rotational constants: A = ************  B =     23.23159  C =     23.23159 [cm^-1]
  Rotational constants: A = ************  B = 696465.42047  C = 696465.42047 [MHz]
  Nuclear repulsion =    0.440981007158333

  Charge       = 0
  Multiplicity = 1
  Electrons    = 2
  Nalpha       = 1
  Nbeta        = 1

  ==> Algorithm <==

  SCF Algorithm Type is PK.
  DIIS enabled.
  MOM disabled.
  Fractional occupation disabled.
  Guess Type is CORE.
  Energy threshold   = 1.00e-06
  Density threshold  = 1.00e-06
  Integral threshold = 0.00e+00

  ==> Primary Basis <==

  Basis Set: CC-PVDZ
    Number of shells: 6
    Number of basis function: 10
    Number of Cartesian functions: 10
    Spherical Harmonics?: true
    Max angular momentum: 1

  ==> Pre-Iterations <==

   -------------------------------------------------------
    Irrep   Nso     Nmo     Nalpha   Nbeta   Ndocc  Nsocc
   -------------------------------------------------------
     A         10      10       0       0       0       0
   -------------------------------------------------------
    Total      10      10       1       1       1       0
   -------------------------------------------------------

  Starting with a DF guess...

 OEINTS: Overlap, kinetic, potential, dipole, and quadrupole integrals
         stored in file 35.

  ==> Integral Setup <==

  ==> DFJK: Density-Fitted J/K Matrices <==

    J tasked:                  Yes
    K tasked:                  Yes
    wK tasked:                  No
    OpenMP threads:              1
    Integrals threads:           1
    Memory (MB):               183
    Algorithm:                Core
    Integral Cache:           NONE
    Schwarz Cutoff:          1E-12
    Fitting Condition:       1E-12

   => Auxiliary Basis Set <=

  Basis Set: 
    Number of shells: 18
    Number of basis function: 46
    Number of Cartesian functions: 50
    Spherical Harmonics?: true
    Max angular momentum: 2

  Minimum eigenvalue in the overlap matrix is 1.3914981392E-01.
  Using Symmetric Orthogonalization.
  SCF Guess: Core (One-Electron) Hamiltonian.

  ==> Iterations <==

                           Total Energy        Delta E     RMS |[F,P]|

   @DF-RHF iter   1:    -1.01762117058576   -1.01762e+00   1.98247e-02 
   @DF-RHF iter   2:    -1.05977677307618   -4.21556e-02   3.45400e-03 DIIS
   @DF-RHF iter   3:    -1.06111314365643   -1.33637e-03   1.42886e-04 DIIS
   @DF-RHF iter   4:    -1.06111455544821   -1.41179e-06   5.49812e-06 DIIS
   @DF-RHF iter   5:    -1.06111455889154   -3.44333e-09   4.33813e-09 DIIS

  DF guess converged.

  ==> Integral Setup <==

 MINTS: Wrapper to libmints.
   by Justin Turney

   Calculation information:
      Number of atoms:                   2
      Number of AO shells:               6
      Number of SO shells:               6
      Number of primitives:             10
      Number of atomic orbitals:        10
      Number of basis functions:        10

      Number of irreps:                  1
      Integral cutoff                 0.00e+00
      Number of functions per irrep: [  10 ]

 OEINTS: Overlap, kinetic, potential, dipole, and quadrupole integrals
         stored in file 35.

      Computing two-electron integrals...done
      Computed 512 non-zero two-electron integrals.
        Stored in file 33.

	Batch   1 pq = [       0,      55] index = [             0,1540]
  ==> DiskJK: Disk-Based J/K Matrices <==

    J tasked:                  Yes
    K tasked:                  Yes
    wK tasked:                  No
    Memory (MB):               183
    Schwarz Cutoff:          1E-12

   @RHF iter   6:    -1.06111199672580    2.56217e-06   1.01387e-06 DIIS
   @RHF iter   7:    -1.06111199678673   -6.09246e-11   1.63263e-07 DIIS

  ==> Post-Iterations <==

    Orbital Energies (a.u.)
    -----------------------

    Doubly Occupied:                                                      

       1A     -0.485256  

    Virtual:                                                              

       2A      0.100246     3A      0.582959     4A      0.729285  
       5A      1.315308     6A      1.315308     7A      1.472195  
       8A      1.754058     9A      1.754058    10A      2.459835  

    Final Occupation by Irrep:
              A 
    DOCC [     1 ]

  Energy converged.

  @RHF Final Energy:    -1.06111199678673

   => Energetics <=

    Nuclear Repulsion Energy =              0.4409810071583334
    One-Electron Energy =                  -2.0336739703731195
    Two-Electron Energy =                   0.5315809664280582
    DFT Exchange-Correlation Energy =       0.0000000000000000
    Empirical Dispersion Energy =           0.0000000000000000
    PCM Polarization Energy =               0.0000000000000000
    EFP Energy =                            0.0000000000000000
    Total Energy =                         -1.0611119967867280

    Alert: EFP and PCM quantities not currently incorporated into SCF psivars.

Properties will be evaluated at   0.000000,   0.000000,   0.000000 Bohr
  ==> Properties <==


Properties computed using the SCF density matrix

  Nuclear Dipole Moment: (a.u.)
     X:     0.0000      Y:     0.0000      Z:     0.0000

  Electronic Dipole Moment: (a.u.)
     X:    -0.0000      Y:     0.0000      Z:     0.0000

  Dipole Moment: (a.u.)
     X:    -0.0000      Y:     0.0000      Z:     0.0000     Total:     0.0000

  Dipole Moment: (Debye)
     X:    -0.0000      Y:     0.0000      Z:     0.0000     Total:     0.0000


  Saving occupied orbitals to File 180.

*** tstop() called on Kevins-MacBook-Pro.local at Fri Apr 10 18:02:06 2015
Module time:
	user time   =       0.19 seconds =       0.00 minutes
	system time =       0.01 seconds =       0.00 minutes
	total time  =          0 seconds =       0.00 minutes
Total time:
	user time   =       0.20 seconds =       0.00 minutes
	system time =       0.01 seconds =       0.00 minutes
	total time  =          0 seconds =       0.00 minutes

*** tstart() called on Kevins-MacBook-Pro.local
*** at Fri Apr 10 18:02:06 2015


         ---------------------------------------------------------
                                   SCF
            by Justin Turney, Rob Parrish, and Andy Simmonett
                              RHF Reference
                        1 Threads,    256 MiB Core
         ---------------------------------------------------------

  ==> Geometry <==

    Molecular point group: c1
    Full point group: D_inf_h

    Geometry (in Angstrom), charge = 0, multiplicity = 1:

       Center              X                  Y                   Z       
    ------------   -----------------  -----------------  -----------------
           H          0.000000000000     0.000000000000    -0.600000000000
           H          0.000000000000     0.000000000000     0.600000000000

  Running in c1 symmetry.

  Rotational constants: A = ************  B =     23.23159  C =     23.23159 [cm^-1]
  Rotational constants: A = ************  B = 696465.42047  C = 696465.42047 [MHz]
  Nuclear repulsion =    0.440981007158333

  Charge       = 0
  Multiplicity = 1
  Electrons    = 2
  Nalpha       = 1
  Nbeta        = 1

  ==> Algorithm <==

  SCF Algorithm Type is PK.
  DIIS enabled.
  MOM disabled.
  Fractional occupation disabled.
  Guess Type is CORE.
  Energy threshold   = 1.00e-08
  Density threshold  = 1.00e-08
  Integral threshold = 0.00e+00

  ==> Primary Basis <==

  Basis Set: CC-PVDZ
    Number of shells: 6
    Number of basis function: 10
    Number of Cartesian functions: 10
    Spherical Harmonics?: true
    Max angular momentum: 1

  ==> Pre-Iterations <==

   -------------------------------------------------------
    Irrep   Nso     Nmo     Nalpha   Nbeta   Ndocc  Nsocc
   -------------------------------------------------------
     A         10      10       0       0       0       0
   -------------------------------------------------------
    Total      10      10       1       1       1       0
   -------------------------------------------------------

  Starting with a DF guess...

 OEINTS: Overlap, kinetic, potential, dipole, and quadrupole integrals
         stored in file 35.

  ==> Integral Setup <==

  ==> DFJK: Density-Fitted J/K Matrices <==

    J tasked:                  Yes
    K tasked:                  Yes
    wK tasked:                  No
    OpenMP threads:              1
    Integrals threads:           1
    Memory (MB):               183
    Algorithm:                Core
    Integral Cache:           NONE
    Schwarz Cutoff:          1E-12
    Fitting Condition:       1E-12

   => Auxiliary Basis Set <=

  Basis Set: 
    Number of shells: 18
    Number of basis function: 46
    Number of Cartesian functions: 50
    Spherical Harmonics?: true
    Max angular momentum: 2

  Minimum eigenvalue in the overlap matrix is 1.3914981392E-01.
  Using Symmetric Orthogonalization.
  SCF Guess: Core (One-Electron) Hamiltonian.

  ==> Iterations <==

                           Total Energy        Delta E     RMS |[F,P]|

   @DF-RHF iter   1:    -1.01762117058576   -1.01762e+00   1.98247e-02 
   @DF-RHF iter   2:    -1.05977677307618   -4.21556e-02   3.45400e-03 DIIS
   @DF-RHF iter   3:    -1.06111314365643   -1.33637e-03   1.42886e-04 DIIS
   @DF-RHF iter   4:    -1.06111455544821   -1.41179e-06   5.49812e-06 DIIS
   @DF-RHF iter   5:    -1.06111455889154   -3.44333e-09   4.33813e-09 DIIS

  DF guess converged.

  ==> Integral Setup <==

 MINTS: Wrapper to libmints.
   by Justin Turney

   Calculation information:
      Number of atoms:                   2
      Number of AO shells:               6
      Number of SO shells:               6
      Number of primitives:             10
      Number of atomic orbitals:        10
      Number of basis functions:        10

      Number of irreps:                  1
      Integral cutoff                 0.00e+00
      Number of functions per irrep: [  10 ]

 OEINTS: Overlap, kinetic, potential, dipole, and quadrupole integrals
         stored in file 35.

      Computing two-electron integrals...done
      Computed 512 non-zero two-electron integrals.
        Stored in file 33.

	Batch   1 pq = [       0,      55] index = [             0,1540]
  ==> DiskJK: Disk-Based J/K Matrices <==

    J tasked:                  Yes
    K tasked:                  Yes
    wK tasked:                  No
    Memory (MB):               183
    Schwarz Cutoff:          1E-12

   @RHF iter   6:    -1.06111199672580    2.56217e-06   1.01387e-06 DIIS
   @RHF iter   7:    -1.06111199678673   -6.09250e-11   1.63263e-07 DIIS
   @RHF iter   8:    -1.06111199678838   -1.65157e-12   3.69419e-09 DIIS

  ==> Post-Iterations <==

    Orbital Energies (a.u.)
    -----------------------

    Doubly Occupied:                                                      

       1A     -0.485256  

    Virtual:                                                              

       2A      0.100246     3A      0.582960     4A      0.729285  
       5A      1.315309     6A      1.315309     7A      1.472195  
       8A      1.754058     9A      1.754058    10A      2.459835  

    Final Occupation by Irrep:
              A 
    DOCC [     1 ]

  Energy converged.

  @RHF Final Energy:    -1.06111199678838

   => Energetics <=

    Nuclear Repulsion Energy =              0.4409810071583334
    One-Electron Energy =                  -2.0336739396170094
    Two-Electron Energy =                   0.5315809356702965
    DFT Exchange-Correlation Energy =       0.0000000000000000
    Empirical Dispersion Energy =           0.0000000000000000
    PCM Polarization Energy =               0.0000000000000000
    EFP Energy =                            0.0000000000000000
    Total Energy =                         -1.0611119967883795

    Alert: EFP and PCM quantities not currently incorporated into SCF psivars.

Properties will be evaluated at   0.000000,   0.000000,   0.000000 Bohr
  ==> Properties <==


Properties computed using the SCF density matrix

  Nuclear Dipole Moment: (a.u.)
     X:     0.0000      Y:     0.0000      Z:     0.0000

  Electronic Dipole Moment: (a.u.)
     X:     0.0000      Y:    -0.0000      Z:    -0.0000

  Dipole Moment: (a.u.)
     X:     0.0000      Y:    -0.0000      Z:    -0.0000     Total:     0.0000

  Dipole Moment: (Debye)
     X:     0.0000      Y:    -0.0000      Z:    -0.0000     Total:     0.0000


  Saving occupied orbitals to File 180.

*** tstop() called on Kevins-MacBook-Pro.local at Fri Apr 10 18:02:06 2015
Module time:
	user time   =       0.19 seconds =       0.00 minutes
	system time =       0.01 seconds =       0.00 minutes
	total time  =          0 seconds =       0.00 minutes
Total time:
	user time   =       0.40 seconds =       0.01 minutes
	system time =       0.02 seconds =       0.00 minutes
	total time  =          0 seconds =       0.00 minutes
Reading options from the SCF block
Calling plugin scf.so.
    Molecular point group: c1
    Full point group: D_inf_h

    Geometry (in Angstrom), charge = 0, multiplicity = 1:

       Center              X                  Y                   Z       
    ------------   -----------------  -----------------  -----------------
           H          0.000000000000     0.000000000000    -0.600000000000
           H          0.000000000000     0.000000000000     0.600000000000


    Nuclear repulsion energy:       0.44098101

  ## Overlap (Symmetry 0) ##
  Irrep: 1 Size: 10 x 10

                 1                   2                   3                   4                   5

    1     1.00000000000000     0.68486025149275     0.00000000000000     0.00000000000000     0.00000000000000
    2     0.68486025149275     1.00000000000000     0.00000000000000     0.00000000000000     0.00000000000000
    3     0.00000000000000     0.00000000000000     1.00000000000000     0.00000000000000     0.00000000000000
    4     0.00000000000000     0.00000000000000     0.00000000000000     1.00000000000000     0.00000000000000
    5     0.00000000000000     0.00000000000000     0.00000000000000     0.00000000000000     1.00000000000000
    6     0.25323302459162     0.41407359245062     0.31363447417014     0.00000000000000     0.00000000000000
    7     0.41407359245062     0.73075112383926     0.19082040378151     0.00000000000000     0.00000000000000
    8    -0.31363447417014    -0.19082040378151    -0.42238566268992     0.00000000000000     0.00000000000000
    9     0.00000000000000     0.00000000000000     0.00000000000000     0.15424111966447     0.00000000000000
   10     0.00000000000000     0.00000000000000     0.00000000000000     0.00000000000000     0.15424111966447

                 6                   7                   8                   9                  10

    1     0.25323302459162     0.41407359245062    -0.31363447417014     0.00000000000000     0.00000000000000
    2     0.41407359245062     0.73075112383926    -0.19082040378151     0.00000000000000     0.00000000000000
    3     0.31363447417014     0.19082040378151    -0.42238566268992     0.00000000000000     0.00000000000000
    4     0.00000000000000     0.00000000000000     0.00000000000000     0.15424111966447     0.00000000000000
    5     0.00000000000000     0.00000000000000     0.00000000000000     0.00000000000000     0.15424111966447
    6     1.00000000000000     0.68486025149275    -0.00000000000000     0.00000000000000     0.00000000000000
    7     0.68486025149275     1.00000000000000     0.00000000000000     0.00000000000000     0.00000000000000
    8    -0.00000000000000     0.00000000000000     1.00000000000000     0.00000000000000     0.00000000000000
    9     0.00000000000000     0.00000000000000     0.00000000000000     1.00000000000000     0.00000000000000
   10     0.00000000000000     0.00000000000000     0.00000000000000     0.00000000000000     1.00000000000000



  ## Kinetic (Symmetry 0) ##
  Irrep: 1 Size: 10 x 10

                 1                   2                   3                   4                   5

    1     0.96945722711242     0.20123413106538     0.00000000000000     0.00000000000000     0.00000000000000
    2     0.20123413106538     0.18300000000000     0.00000000000000     0.00000000000000     0.00000000000000
    3     0.00000000000000     0.00000000000000     1.81750000000000     0.00000000000000     0.00000000000000
    4     0.00000000000000     0.00000000000000     0.00000000000000     1.81750000000000     0.00000000000000
    5     0.00000000000000     0.00000000000000     0.00000000000000     0.00000000000000     1.81750000000000
    6     0.01951643922366     0.08058840199849     0.15457084329481     0.00000000000000     0.00000000000000
    7     0.08058840199849     0.10576216178115     0.07825542548010     0.00000000000000     0.00000000000000
    8    -0.15457084329481    -0.07825542548010    -0.61289846080568     0.00000000000000     0.00000000000000
    9     0.00000000000000     0.00000000000000     0.00000000000000     0.07072939960436     0.00000000000000
   10     0.00000000000000     0.00000000000000     0.00000000000000     0.00000000000000     0.07072939960436

                 6                   7                   8                   9                  10

    1     0.01951643922366     0.08058840199849    -0.15457084329481     0.00000000000000     0.00000000000000
    2     0.08058840199849     0.10576216178115    -0.07825542548010     0.00000000000000     0.00000000000000
    3     0.15457084329481     0.07825542548010    -0.61289846080568     0.00000000000000     0.00000000000000
    4     0.00000000000000     0.00000000000000     0.00000000000000     0.07072939960436     0.00000000000000
    5     0.00000000000000     0.00000000000000     0.00000000000000     0.00000000000000     0.07072939960436
    6     0.96945722711242     0.20123413106538    -0.00000000000000     0.00000000000000     0.00000000000000
    7     0.20123413106538     0.18300000000000     0.00000000000000     0.00000000000000     0.00000000000000
    8    -0.00000000000000     0.00000000000000     1.81750000000000     0.00000000000000     0.00000000000000
    9     0.00000000000000     0.00000000000000     0.00000000000000     1.81750000000000     0.00000000000000
   10     0.00000000000000     0.00000000000000     0.00000000000000     0.00000000000000     1.81750000000000



  ## Potential (Symmetry 0) ##
  Irrep: 1 Size: 10 x 10

                 1                   2                   3                   4                   5

    1    -1.81811461075076    -0.94749715497173    -0.12154782400710     0.00000000000000     0.00000000000000
    2    -0.94749715497173    -0.94845567321388    -0.11096709428132     0.00000000000000     0.00000000000000
    3    -0.12154782400710    -0.11096709428132    -1.40611241663501     0.00000000000000     0.00000000000000
    4     0.00000000000000     0.00000000000000     0.00000000000000    -1.31857867758026     0.00000000000000
    5     0.00000000000000     0.00000000000000     0.00000000000000     0.00000000000000    -1.31857867758026
    6    -0.41410648566758    -0.59124939424843    -0.51758490927454     0.00000000000000     0.00000000000000
    7    -0.59124939424843    -0.73688483244315    -0.30997671149337     0.00000000000000     0.00000000000000
    8     0.51758490927454     0.30997671149337     0.66700098059860     0.00000000000000     0.00000000000000
    9     0.00000000000000     0.00000000000000     0.00000000000000    -0.20601404803950     0.00000000000000
   10     0.00000000000000     0.00000000000000     0.00000000000000     0.00000000000000    -0.20601404803950

                 6                   7                   8                   9                  10

    1    -0.41410648566758    -0.59124939424843     0.51758490927454     0.00000000000000     0.00000000000000
    2    -0.59124939424843    -0.73688483244315     0.30997671149337     0.00000000000000     0.00000000000000
    3    -0.51758490927454    -0.30997671149337     0.66700098059860     0.00000000000000     0.00000000000000
    4     0.00000000000000     0.00000000000000     0.00000000000000    -0.20601404803950     0.00000000000000
    5     0.00000000000000     0.00000000000000     0.00000000000000     0.00000000000000    -0.20601404803950
    6    -1.81811461075076    -0.94749715497173     0.12154782400710     0.00000000000000     0.00000000000000
    7    -0.94749715497173    -0.94845567321388     0.11096709428132     0.00000000000000     0.00000000000000
    8     0.12154782400710     0.11096709428132    -1.40611241663501     0.00000000000000     0.00000000000000
    9     0.00000000000000     0.00000000000000     0.00000000000000    -1.31857867758026     0.00000000000000
   10     0.00000000000000     0.00000000000000     0.00000000000000     0.00000000000000    -1.31857867758026



  ## One Electron Ints (Symmetry 0) ##
  Irrep: 1 Size: 10 x 10

                 1                   2                   3                   4                   5

    1    -0.84865738363834    -0.74626302390635    -0.12154782400710     0.00000000000000     0.00000000000000
    2    -0.74626302390635    -0.76545567321388    -0.11096709428132     0.00000000000000     0.00000000000000
    3    -0.12154782400710    -0.11096709428132     0.41138758336499     0.00000000000000     0.00000000000000
    4     0.00000000000000     0.00000000000000     0.00000000000000     0.49892132241974     0.00000000000000
    5     0.00000000000000     0.00000000000000     0.00000000000000     0.00000000000000     0.49892132241974
    6    -0.39459004644392    -0.51066099224995    -0.36301406597973     0.00000000000000     0.00000000000000
    7    -0.51066099224995    -0.63112267066200    -0.23172128601327     0.00000000000000     0.00000000000000
    8     0.36301406597973     0.23172128601327     0.05410251979292     0.00000000000000     0.00000000000000
    9     0.00000000000000     0.00000000000000     0.00000000000000    -0.13528464843514     0.00000000000000
   10     0.00000000000000     0.00000000000000     0.00000000000000     0.00000000000000    -0.13528464843514

                 6                   7                   8                   9                  10

    1    -0.39459004644392    -0.51066099224995     0.36301406597973     0.00000000000000     0.00000000000000
    2    -0.51066099224995    -0.63112267066200     0.23172128601327     0.00000000000000     0.00000000000000
    3    -0.36301406597973    -0.23172128601327     0.05410251979292     0.00000000000000     0.00000000000000
    4     0.00000000000000     0.00000000000000     0.00000000000000    -0.13528464843514     0.00000000000000
    5     0.00000000000000     0.00000000000000     0.00000000000000     0.00000000000000    -0.13528464843514
    6    -0.84865738363834    -0.74626302390635     0.12154782400710     0.00000000000000     0.00000000000000
    7    -0.74626302390635    -0.76545567321388     0.11096709428132     0.00000000000000     0.00000000000000
    8     0.12154782400710     0.11096709428132     0.41138758336499     0.00000000000000     0.00000000000000
    9     0.00000000000000     0.00000000000000     0.00000000000000     0.49892132241974     0.00000000000000
   10     0.00000000000000     0.00000000000000     0.00000000000000     0.00000000000000     0.49892132241974




	There are 0 unique integrals

  ## Fock (Symmetry 0) ##
  Irrep: 1 Size: 10 x 10

                 1                   2                   3                   4                   5

    1    -0.51982632917082    -0.31702775222782     0.04608412742482     0.00000000000000     0.00000000000000
    2    -0.31702775222782    -0.33464659618307     0.16832654863822     0.00000000000000     0.00000000000000
    3     0.04608412742482     0.16832654863822     0.80851798755608     0.00000000000000     0.00000000000000
    4     0.00000000000000     0.00000000000000     0.00000000000000     0.53245505582641     0.00000000000000
    5     0.00000000000000     0.00000000000000     0.00000000000000     0.00000000000000     0.53245505582641
    6    -0.11405247156411    -0.10703815976689    -0.36555654949352     0.00000000000000     0.00000000000000
    7    -0.10703815976689    -0.14704450885515    -0.18488605354703    -0.00000000000000     0.00000000000000
    8     0.36555654949352     0.18488605354703     0.46803351212609     0.00000000000000     0.00000000000000
    9    -0.00000000000000    -0.00000000000000    -0.00000000000000    -0.21741111241682     0.00000000000000
   10     0.00000000000000     0.00000000000000     0.00000000000000     0.00000000000000    -0.21741111241682

                 6                   7                   8                   9                  10

    1    -0.11405247156411    -0.10703815976689     0.36555654949352    -0.00000000000000     0.00000000000000
    2    -0.10703815976689    -0.14704450885515     0.18488605354703    -0.00000000000000     0.00000000000000
    3    -0.36555654949352    -0.18488605354703     0.46803351212609    -0.00000000000000     0.00000000000000
    4     0.00000000000000    -0.00000000000000     0.00000000000000    -0.21741111241682     0.00000000000000
    5     0.00000000000000     0.00000000000000     0.00000000000000     0.00000000000000    -0.21741111241682
    6    -0.51982632917081    -0.31702775222782    -0.04608412742482    -0.00000000000000     0.00000000000000
    7    -0.31702775222782    -0.33464659618307    -0.16832654863822     0.00000000000000     0.00000000000000
    8    -0.04608412742482    -0.16832654863822     0.80851798755608    -0.00000000000000     0.00000000000000
    9    -0.00000000000000     0.00000000000000    -0.00000000000000     0.53245505582641     0.00000000000000
   10     0.00000000000000     0.00000000000000     0.00000000000000     0.00000000000000     0.53245505582641



  ## C (Symmetry 0) ##
  Irrep: 1 Size: 10 x 10

                 1                   2                   3                   4                   5

    1    -0.41930432155274    -0.41631277218488    -0.25265624596798    -0.04325595420204    -0.13195209089604
    2    -0.81319199692562    -0.46352444944380     0.89710332055895    -0.00317744843044    -0.10566558454256
    3     0.27968415553977    -0.73759972669934     0.36952818091200    -0.13623508463110    -0.21205589137122
    4     0.40091638588823    -0.58936497533467     0.03217804377529     0.05535881675484    -0.00000000000000
    5    -0.01079556051772    -0.01025478584337    -0.05331879436851     0.08682443617717     0.70822451694970
    6    -0.15397504112487     0.18346194314415     0.30014214772899     0.93563928919542    -0.06175603428704
    7     0.75212818757483     0.19055590321121    -1.31353399584319    -0.35427999975872     0.15756532901106
    8    -0.10688205055300    -0.30420018782185     0.17763150116920    -0.05255474337087    -0.82849623907169
    9    -0.03110500926586     0.04572575146347    -0.00249652642052    -0.71352676833187     0.00000000000000
   10     0.13914534052733     0.13217522757319     0.68723266260534    -0.00673625470760    -0.05494744275224

                 6                   7                   8                   9                  10

    1    -0.99318311006199    -0.79635990629107     0.06336754802631    -0.04325595420204     0.14255797573909
    2     1.16170821293136     0.84433912720373    -0.24570045156697    -0.00317744843044     0.10644465999632
    3     0.46318739341189    -0.61607601638123    -0.30900130718815    -0.13623508463110     0.24545923770436
    4    -0.40091638588823     0.58936497533467     0.03217804377529    -0.05535881675484     0.00000000000000
    5     0.01079556051772     0.01025478584337    -0.05331879436851     0.08682443617717     0.70822451694970
    6    -0.15912201599519     0.18005339575061    -0.30183983056908     0.93563928919541    -0.16765244227765
    7    -0.05609570420581    -0.34468460390928     1.04694869737289    -0.35427999975872    -0.07069976451358
    8     0.06363423845871    -0.19127699174823    -0.12138825438756    -0.05255474337087     0.84138208488020
    9     0.03110500926586    -0.04572575146347    -0.00249652642052     0.71352676833187    -0.00000000000000
   10    -0.13914534052733    -0.13217522757319     0.68723266260534    -0.00673625470760    -0.05494744275224




 In Bisection function HOMO = -1.037  LUMO =  1.428

 0.19517 = (-1.03750 + 1.42783)/2.0
 sum -  nocc_ = 3.00000000
 On Iteration in Bisection 0
 a: 3.00000  b:-0.50000

 -0.42117 = (-1.03750 + 0.19517)/2.0
 sum -  nocc_ = 1.00000000
 On Iteration in Bisection 1
 a: 1.00000  b:-0.50000

 -0.72933 = (-1.03750 + -0.42117)/2.0
 sum -  nocc_ = 0.00000000
 ef = -0.72933 sum = 1.00000 

 Iter: 0  T:      100.000  val:-0.729333  sumni 0.00000
 ne = 1.0000

Nuc Replusion =       0.440981007158
 1st iteration =      -0.659498399825
 In Bisection function HOMO = -0.286  LUMO =  2.392

 1.05300 = (-0.28643 + 2.39242)/2.0
 sum -  nocc_ = 3.00000000
 On Iteration in Bisection 0
 a: 3.00000  b:-0.50000

 0.38329 = (-0.28643 + 1.05300)/2.0
 sum -  nocc_ = 1.00000000
 On Iteration in Bisection 1
 a: 1.00000  b:-0.50000

 0.04843 = (-0.28643 + 0.38329)/2.0
 sum -  nocc_ = 1.00000000
 On Iteration in Bisection 2
 a: 1.00000  b:-0.50000

 -0.11900 = (-0.28643 + 0.04843)/2.0
 sum -  nocc_ = 0.00000000
 ef = -0.11900 sum = 1.00000 

 Iter: 0  T:      100.000  val:-0.118998  sumni 0.00000
 ne = 1.0000

 iter:1  failiter:1  energy:     -1.272880589350  total:     -0.831899582192  error:     -0.211768592562
 In Bisection function HOMO = -0.459  LUMO =  2.475

 1.00786 = (-0.45918 + 2.47490)/2.0
 sum -  nocc_ = 3.00000000
 On Iteration in Bisection 0
 a: 3.00000  b:-0.50000

 0.27434 = (-0.45918 + 1.00786)/2.0
 sum -  nocc_ = 1.00000000
 On Iteration in Bisection 1
 a: 1.00000  b:-0.50000

 -0.09242 = (-0.45918 + 0.27434)/2.0
 sum -  nocc_ = 0.00000000
 ef = -0.09242 sum = 1.00000 

 Iter: 1  T:      100.000  val:-0.092420  sumni 0.00000
 ne = 1.0000

 iter:2  failiter:2  energy:     -1.474614556647  total:     -1.033633549489  error:     -0.201733967297
 In Bisection function HOMO = -0.486  LUMO =  2.458

 0.98593 = (-0.48632 + 2.45817)/2.0
 sum -  nocc_ = 3.00000000
 On Iteration in Bisection 0
 a: 3.00000  b:-0.50000

 0.24980 = (-0.48632 + 0.98593)/2.0
 sum -  nocc_ = 1.00000000
 On Iteration in Bisection 1
 a: 1.00000  b:-0.50000

 -0.11826 = (-0.48632 + 0.24980)/2.0
 sum -  nocc_ = 0.00000000
 ef = -0.11826 sum = 1.00000 

 Iter: 2  T:      100.000  val:-0.118256  sumni 0.00000
 ne = 1.0000

 iter:3  failiter:3  energy:     -1.502997884526  total:     -1.062016877368  error:     -0.028383327879
 In Bisection function HOMO = -0.485  LUMO =  2.460

 0.98712 = (-0.48540 + 2.45964)/2.0
 sum -  nocc_ = 3.00000000
 On Iteration in Bisection 0
 a: 3.00000  b:-0.50000

 0.25086 = (-0.48540 + 0.98712)/2.0
 sum -  nocc_ = 1.00000000
 On Iteration in Bisection 1
 a: 1.00000  b:-0.50000

 -0.11727 = (-0.48540 + 0.25086)/2.0
 sum -  nocc_ = 0.00000000
 ef = -0.11727 sum = 1.00000 

 Iter: 3  T:      100.000  val:-0.117266  sumni 0.00000
 ne = 1.0000

 iter:4  failiter:4  energy:     -1.502215093169  total:     -1.061234086011  error:      0.000782791357
 In Bisection function HOMO = -0.485  LUMO =  2.460

 0.98727 = (-0.48527 + 2.45982)/2.0
 sum -  nocc_ = 3.00000000
 On Iteration in Bisection 0
 a: 3.00000  b:-0.50000

 0.25100 = (-0.48527 + 0.98727)/2.0
 sum -  nocc_ = 1.00000000
 On Iteration in Bisection 1
 a: 1.00000  b:-0.50000

 -0.11714 = (-0.48527 + 0.25100)/2.0
 sum -  nocc_ = 0.00000000
 ef = -0.11714 sum = 1.00000 

 Iter: 4  T:      100.000  val:-0.117136  sumni 0.00000
 ne = 1.0000

 iter:5  failiter:5  energy:     -1.502107670575  total:     -1.061126663416  error:      0.000107422595
 In Bisection function HOMO = -0.485  LUMO =  2.460

 0.98729 = (-0.48526 + 2.45983)/2.0
 sum -  nocc_ = 3.00000000
 On Iteration in Bisection 0
 a: 3.00000  b:-0.50000

 0.25102 = (-0.48526 + 0.98729)/2.0
 sum -  nocc_ = 1.00000000
 On Iteration in Bisection 1
 a: 1.00000  b:-0.50000

 -0.11712 = (-0.48526 + 0.25102)/2.0
 sum -  nocc_ = 0.00000000
 ef = -0.11712 sum = 1.00000 

 Iter: 5  T:      100.000  val:-0.117121  sumni 0.00000
 ne = 1.0000

 iter:6  failiter:6  energy:     -1.502094564693  total:     -1.061113557535  error:      0.000013105881
 In Bisection function HOMO = -0.485  LUMO =  2.460

 0.98729 = (-0.48526 + 2.45984)/2.0
 sum -  nocc_ = 3.00000000
 On Iteration in Bisection 0
 a: 3.00000  b:-0.50000

 0.25102 = (-0.48526 + 0.98729)/2.0
 sum -  nocc_ = 1.00000000
 On Iteration in Bisection 1
 a: 1.00000  b:-0.50000

 -0.11712 = (-0.48526 + 0.25102)/2.0
 sum -  nocc_ = 0.00000000
 ef = -0.11712 sum = 1.00000 

 Iter: 6  T:      100.000  val:-0.117120  sumni 0.00000
 ne = 1.0000

 iter:7  failiter:7  energy:     -1.502093122821  total:     -1.061112115663  error:      0.000001441872
 In Bisection function HOMO = -0.485  LUMO =  2.460

 0.98729 = (-0.48526 + 2.45984)/2.0
 sum -  nocc_ = 3.00000000
 On Iteration in Bisection 0
 a: 3.00000  b:-0.50000

 0.25102 = (-0.48526 + 0.98729)/2.0
 sum -  nocc_ = 1.00000000
 On Iteration in Bisection 1
 a: 1.00000  b:-0.50000

 -0.11712 = (-0.48526 + 0.25102)/2.0
 sum -  nocc_ = 0.00000000
 ef = -0.11712 sum = 1.00000 

 Iter: 7  T:      100.000  val:-0.117120  sumni 0.00000
 ne = 1.0000

 iter:8  failiter:8  energy:     -1.502093000502  total:     -1.061111993344  error:      0.000000122319
 In Bisection function HOMO = -0.485  LUMO =  2.460

 0.98729 = (-0.48526 + 2.45984)/2.0
 sum -  nocc_ = 3.00000000
 On Iteration in Bisection 0
 a: 3.00000  b:-0.50000

 0.25102 = (-0.48526 + 0.98729)/2.0
 sum -  nocc_ = 1.00000000
 On Iteration in Bisection 1
 a: 1.00000  b:-0.50000

 -0.11712 = (-0.48526 + 0.25102)/2.0
 sum -  nocc_ = 0.00000000
 ef = -0.11712 sum = 1.00000 

 Iter: 8  T:      100.000  val:-0.117120  sumni 0.00000
 ne = 1.0000

 iter:9  failiter:9  energy:     -1.502092999441  total:     -1.061111992283  error:      0.000000001061
 In Bisection function HOMO = -0.485  LUMO =  2.460

 0.98729 = (-0.48526 + 2.45984)/2.0
 sum -  nocc_ = 3.00000000
 On Iteration in Bisection 0
 a: 3.00000  b:-0.50000

 0.25102 = (-0.48526 + 0.98729)/2.0
 sum -  nocc_ = 1.00000000
 On Iteration in Bisection 1
 a: 1.00000  b:-0.50000

 -0.11712 = (-0.48526 + 0.25102)/2.0
 sum -  nocc_ = 0.00000000
 ef = -0.11712 sum = 1.00000 

 Iter: 9  T:      100.000  val:-0.117120  sumni 0.00000
 ne = 1.0000

 iter:10  failiter:10  energy:     -1.502093002515  total:     -1.061111995357  error:     -0.000000003074
 In Bisection function HOMO = -0.485  LUMO =  2.460

 0.98729 = (-0.48526 + 2.45984)/2.0
 sum -  nocc_ = 3.00000000
 On Iteration in Bisection 0
 a: 3.00000  b:-0.50000

 0.25102 = (-0.48526 + 0.98729)/2.0
 sum -  nocc_ = 1.00000000
 On Iteration in Bisection 1
 a: 1.00000  b:-0.50000

 -0.11712 = (-0.48526 + 0.25102)/2.0
 sum -  nocc_ = 0.00000000
 ef = -0.11712 sum = 1.00000 

 Iter: 10  T:      100.000  val:-0.117120  sumni 0.00000
 ne = 1.0000

 iter:11  failiter:11  energy:     -1.502093003588  total:     -1.061111996430  error:     -0.000000001073
 In Bisection function HOMO = -0.485  LUMO =  2.460

 0.98729 = (-0.48526 + 2.45984)/2.0
 sum -  nocc_ = 3.00000000
 On Iteration in Bisection 0
 a: 3.00000  b:-0.50000

 0.25102 = (-0.48526 + 0.98729)/2.0
 sum -  nocc_ = 1.00000000
 On Iteration in Bisection 1
 a: 1.00000  b:-0.50000

 -0.11712 = (-0.48526 + 0.25102)/2.0
 sum -  nocc_ = 0.00000000
 ef = -0.11712 sum = 1.00000 

 Iter: 11  T:      100.000  val:-0.117120  sumni 0.00000
 ne = 1.0000

 iter:12  failiter:12  energy:     -1.502093003865  total:     -1.061111996707  error:     -0.000000000277
 In Bisection function HOMO = -0.485  LUMO =  2.460

 0.98729 = (-0.48526 + 2.45984)/2.0
 sum -  nocc_ = 3.00000000
 On Iteration in Bisection 0
 a: 3.00000  b:-0.50000

 0.25102 = (-0.48526 + 0.98729)/2.0
 sum -  nocc_ = 1.00000000
 On Iteration in Bisection 1
 a: 1.00000  b:-0.50000

 -0.11712 = (-0.48526 + 0.25102)/2.0
 sum -  nocc_ = 0.00000000
 ef = -0.11712 sum = 1.00000 

 Iter: 12  T:      100.000  val:-0.117120  sumni 0.00000
 ne = 1.0000

 iter:13  failiter:13  energy:     -1.502093003929  total:     -1.061111996771  error:     -0.000000000064
 In Bisection function HOMO = -0.485  LUMO =  2.460

 0.98729 = (-0.48526 + 2.45984)/2.0
 sum -  nocc_ = 3.00000000
 On Iteration in Bisection 0
 a: 3.00000  b:-0.50000

 0.25102 = (-0.48526 + 0.98729)/2.0
 sum -  nocc_ = 1.00000000
 On Iteration in Bisection 1
 a: 1.00000  b:-0.50000

 -0.11712 = (-0.48526 + 0.25102)/2.0
 sum -  nocc_ = 0.00000000
 ef = -0.11712 sum = 1.00000 

 Iter: 13  T:      100.000  val:-0.117120  sumni 0.00000
 ne = 1.0000

 iter:14  failiter:14  energy:     -1.502093003943  total:     -1.061111996785  error:     -0.000000000014
 In Bisection function HOMO = -0.485  LUMO =  2.460

 0.98729 = (-0.48526 + 2.45984)/2.0
 sum -  nocc_ = 3.00000000
 On Iteration in Bisection 0
 a: 3.00000  b:-0.50000

 0.25102 = (-0.48526 + 0.98729)/2.0
 sum -  nocc_ = 1.00000000
 On Iteration in Bisection 1
 a: 1.00000  b:-0.50000

 -0.11712 = (-0.48526 + 0.25102)/2.0
 sum -  nocc_ = 0.00000000
 ef = -0.11712 sum = 1.00000 

 Iter: 14  T:      100.000  val:-0.117120  sumni 0.00000
 ne = 1.0000

 iter:15  failiter:15  energy:     -1.502093003946  total:     -1.061111996788  error:     -0.000000000003
 In Bisection function HOMO = -0.485  LUMO =  2.460

 0.98729 = (-0.48526 + 2.45984)/2.0
 sum -  nocc_ = 3.00000000
 On Iteration in Bisection 0
 a: 3.00000  b:-0.50000

 0.25102 = (-0.48526 + 0.98729)/2.0
 sum -  nocc_ = 1.00000000
 On Iteration in Bisection 1
 a: 1.00000  b:-0.50000

 -0.11712 = (-0.48526 + 0.25102)/2.0
 sum -  nocc_ = 0.00000000
 ef = -0.11712 sum = 1.00000 

 Iter: 15  T:      100.000  val:-0.117120  sumni 0.00000
 ne = 1.0000

 iter:16  failiter:16  energy:     -1.502093003947  total:     -1.061111996788  error:     -0.000000000001
 FTHFEnergy =    -1.061112
 FD_dis[0] = 1.00000000 with -0.485256 eig value
 FD_dis[1] = 0.00000000 with 0.100246 eig value
 FD_dis[2] = 0.00000000 with 0.582960 eig value
 FD_dis[3] = 0.00000000 with 0.729285 eig value
 FD_dis[4] = 0.00000000 with 1.315309 eig value
 FD_dis[5] = 0.00000000 with 1.315309 eig value
 FD_dis[6] = 0.00000000 with 1.472195 eig value
 FD_dis[7] = 0.00000000 with 1.754058 eig value
 FD_dis[8] = 0.00000000 with 1.754058 eig value
 FD_dis[9] = 0.00000000 with 2.459835 eig value
*** PSI4 exiting successfully. Buy a developer a beer!
