    -----------------------------------------------------------------------
          PSI4: An Open-Source Ab Initio Electronic Structure Package
                              PSI 4.0 Driver

               Git: Rev {master} 556e8139d3cfa1f96ccffe2cdf22cc56a185d2b2

    J. M. Turney, A. C. Simmonett, R. M. Parrish, E. G. Hohenstein,
    F. A. Evangelista, J. T. Fermann, B. J. Mintz, L. A. Burns, J. J. Wilke,
    M. L. Abrams, N. J. Russ, M. L. Leininger, C. L. Janssen, E. T. Seidl,
    W. D. Allen, H. F. Schaefer, R. A. King, E. F. Valeev, C. D. Sherrill,
    and T. D. Crawford, WIREs Comput. Mol. Sci. 2, 556-565 (2012)
    (doi: 10.1002/wcms.93)

                         Additional Contributions by
    A. E. DePrince, M. Saitow, U. Bozkaya, A. Yu. Sokolov
    -----------------------------------------------------------------------

    Process ID:  11953
    PSI4DATADIR: /Users/kevinhannon/Programs/psi4cmake/psi4/lib
    Memory level set to 256.000 MB

  ==> Input File <==

--------------------------------------------------------------------------

# PYTHONPATH must include directory above plugin directory.
#     Define either externally or here, then import plugin.
sys.path.insert(0, '/Users/kevinhannon/Programs/Quantum_Programs/Quantum-Programs/GS/')
import scf

molecule {
0 1
H
H 1 2.80000
symmetry c1
units angstrom
}


set {
  basis cc-pvdz
  reference rhf
  scf_type  pk
}

set scf {
  DO_FTHF true
  MAX_ITER 130
  MAX_TEMP 100
  TEMP_INCREMENT 0
  bisect  true
  bisect_iter  40
}
energy('rhf')

energy('scf')


--------------------------------------------------------------------------

*** tstart() called on Kevins-MacBook-Pro.local
*** at Fri Apr 10 18:02:16 2015

/Users/kevinhannon/Programs/Quantum_Programs/Quantum-Programs/GS/scf/scf.so loaded.

*** tstart() called on Kevins-MacBook-Pro.local
*** at Fri Apr 10 18:02:16 2015


         ---------------------------------------------------------
                                   SCF
            by Justin Turney, Rob Parrish, and Andy Simmonett
                              RHF Reference
                        1 Threads,    256 MiB Core
         ---------------------------------------------------------

  ==> Geometry <==

    Molecular point group: c1
    Full point group: D_inf_h

    Geometry (in Angstrom), charge = 0, multiplicity = 1:

       Center              X                  Y                   Z       
    ------------   -----------------  -----------------  -----------------
           H          0.000000000000     0.000000000000    -1.400000000000
           H          0.000000000000     0.000000000000     1.400000000000

  Running in c1 symmetry.

  Rotational constants: A = ************  B =      4.26703  C =      4.26703 [cm^-1]
  Rotational constants: A = ************  B = 127922.22009  C = 127922.22009 [MHz]
  Nuclear repulsion =    0.188991860210714

  Charge       = 0
  Multiplicity = 1
  Electrons    = 2
  Nalpha       = 1
  Nbeta        = 1

  ==> Algorithm <==

  SCF Algorithm Type is PK.
  DIIS enabled.
  MOM disabled.
  Fractional occupation disabled.
  Guess Type is CORE.
  Energy threshold   = 1.00e-06
  Density threshold  = 1.00e-06
  Integral threshold = 0.00e+00

  ==> Primary Basis <==

  Basis Set: CC-PVDZ
    Number of shells: 6
    Number of basis function: 10
    Number of Cartesian functions: 10
    Spherical Harmonics?: true
    Max angular momentum: 1

  ==> Pre-Iterations <==

   -------------------------------------------------------
    Irrep   Nso     Nmo     Nalpha   Nbeta   Ndocc  Nsocc
   -------------------------------------------------------
     A         10      10       0       0       0       0
   -------------------------------------------------------
    Total      10      10       1       1       1       0
   -------------------------------------------------------

  Starting with a DF guess...

 OEINTS: Overlap, kinetic, potential, dipole, and quadrupole integrals
         stored in file 35.

  ==> Integral Setup <==

  ==> DFJK: Density-Fitted J/K Matrices <==

    J tasked:                  Yes
    K tasked:                  Yes
    wK tasked:                  No
    OpenMP threads:              1
    Integrals threads:           1
    Memory (MB):               183
    Algorithm:                Core
    Integral Cache:           NONE
    Schwarz Cutoff:          1E-12
    Fitting Condition:       1E-12

   => Auxiliary Basis Set <=

  Basis Set: 
    Number of shells: 18
    Number of basis function: 46
    Number of Cartesian functions: 50
    Spherical Harmonics?: true
    Max angular momentum: 2

  Minimum eigenvalue in the overlap matrix is 2.6103246186E-01.
  Using Symmetric Orthogonalization.
  SCF Guess: Core (One-Electron) Hamiltonian.

  ==> Iterations <==

                           Total Energy        Delta E     RMS |[F,P]|

   @DF-RHF iter   1:    -0.82089566805966   -8.20896e-01   1.24480e-02 
   @DF-RHF iter   2:    -0.83971911340060   -1.88234e-02   2.11573e-03 DIIS
   @DF-RHF iter   3:    -0.84028452825285   -5.65415e-04   2.28592e-05 DIIS
   @DF-RHF iter   4:    -0.84028457421083   -4.59580e-08   7.48914e-07 DIIS

  DF guess converged.

  ==> Integral Setup <==

 MINTS: Wrapper to libmints.
   by Justin Turney

   Calculation information:
      Number of atoms:                   2
      Number of AO shells:               6
      Number of SO shells:               6
      Number of primitives:             10
      Number of atomic orbitals:        10
      Number of basis functions:        10

      Number of irreps:                  1
      Integral cutoff                 0.00e+00
      Number of functions per irrep: [  10 ]

 OEINTS: Overlap, kinetic, potential, dipole, and quadrupole integrals
         stored in file 35.

      Computing two-electron integrals...done
      Computed 512 non-zero two-electron integrals.
        Stored in file 33.

	Batch   1 pq = [       0,      55] index = [             0,1540]
  ==> DiskJK: Disk-Based J/K Matrices <==

    J tasked:                  Yes
    K tasked:                  Yes
    wK tasked:                  No
    Memory (MB):               183
    Schwarz Cutoff:          1E-12

   @RHF iter   5:    -0.84025323262209    3.13416e-05   8.17889e-06 DIIS
   @RHF iter   6:    -0.84025324023740   -7.61531e-09   1.36756e-06 DIIS
   @RHF iter   7:    -0.84025324046590   -2.28504e-10   2.33661e-08 DIIS

  ==> Post-Iterations <==

    Orbital Energies (a.u.)
    -----------------------

    Doubly Occupied:                                                      

       1A     -0.332744  

    Virtual:                                                              

       2A     -0.104949     3A      0.603345     4A      0.676563  
       5A      1.462233     6A      1.462233     7A      1.463956  
       8A      1.465713     9A      1.465713    10A      1.486543  

    Final Occupation by Irrep:
              A 
    DOCC [     1 ]

  Energy converged.

  @RHF Final Energy:    -0.84025324046590

   => Energetics <=

    Nuclear Repulsion Energy =              0.1889918602107143
    One-Electron Energy =                  -1.3930019035727845
    Two-Electron Energy =                   0.3637568028961692
    DFT Exchange-Correlation Energy =       0.0000000000000000
    Empirical Dispersion Energy =           0.0000000000000000
    PCM Polarization Energy =               0.0000000000000000
    EFP Energy =                            0.0000000000000000
    Total Energy =                         -0.8402532404659009

    Alert: EFP and PCM quantities not currently incorporated into SCF psivars.

Properties will be evaluated at   0.000000,   0.000000,   0.000000 Bohr
  ==> Properties <==


Properties computed using the SCF density matrix

  Nuclear Dipole Moment: (a.u.)
     X:     0.0000      Y:     0.0000      Z:     0.0000

  Electronic Dipole Moment: (a.u.)
     X:    -0.0000      Y:    -0.0000      Z:    -0.0000

  Dipole Moment: (a.u.)
     X:    -0.0000      Y:    -0.0000      Z:    -0.0000     Total:     0.0000

  Dipole Moment: (Debye)
     X:    -0.0000      Y:    -0.0000      Z:    -0.0000     Total:     0.0000


  Saving occupied orbitals to File 180.

*** tstop() called on Kevins-MacBook-Pro.local at Fri Apr 10 18:02:16 2015
Module time:
	user time   =       0.19 seconds =       0.00 minutes
	system time =       0.01 seconds =       0.00 minutes
	total time  =          0 seconds =       0.00 minutes
Total time:
	user time   =       0.21 seconds =       0.00 minutes
	system time =       0.01 seconds =       0.00 minutes
	total time  =          0 seconds =       0.00 minutes

*** tstart() called on Kevins-MacBook-Pro.local
*** at Fri Apr 10 18:02:16 2015


         ---------------------------------------------------------
                                   SCF
            by Justin Turney, Rob Parrish, and Andy Simmonett
                              RHF Reference
                        1 Threads,    256 MiB Core
         ---------------------------------------------------------

  ==> Geometry <==

    Molecular point group: c1
    Full point group: D_inf_h

    Geometry (in Angstrom), charge = 0, multiplicity = 1:

       Center              X                  Y                   Z       
    ------------   -----------------  -----------------  -----------------
           H          0.000000000000     0.000000000000    -1.400000000000
           H          0.000000000000     0.000000000000     1.400000000000

  Running in c1 symmetry.

  Rotational constants: A = ************  B =      4.26703  C =      4.26703 [cm^-1]
  Rotational constants: A = ************  B = 127922.22009  C = 127922.22009 [MHz]
  Nuclear repulsion =    0.188991860210714

  Charge       = 0
  Multiplicity = 1
  Electrons    = 2
  Nalpha       = 1
  Nbeta        = 1

  ==> Algorithm <==

  SCF Algorithm Type is PK.
  DIIS enabled.
  MOM disabled.
  Fractional occupation disabled.
  Guess Type is CORE.
  Energy threshold   = 1.00e-08
  Density threshold  = 1.00e-08
  Integral threshold = 0.00e+00

  ==> Primary Basis <==

  Basis Set: CC-PVDZ
    Number of shells: 6
    Number of basis function: 10
    Number of Cartesian functions: 10
    Spherical Harmonics?: true
    Max angular momentum: 1

  ==> Pre-Iterations <==

   -------------------------------------------------------
    Irrep   Nso     Nmo     Nalpha   Nbeta   Ndocc  Nsocc
   -------------------------------------------------------
     A         10      10       0       0       0       0
   -------------------------------------------------------
    Total      10      10       1       1       1       0
   -------------------------------------------------------

  Starting with a DF guess...

 OEINTS: Overlap, kinetic, potential, dipole, and quadrupole integrals
         stored in file 35.

  ==> Integral Setup <==

  ==> DFJK: Density-Fitted J/K Matrices <==

    J tasked:                  Yes
    K tasked:                  Yes
    wK tasked:                  No
    OpenMP threads:              1
    Integrals threads:           1
    Memory (MB):               183
    Algorithm:                Core
    Integral Cache:           NONE
    Schwarz Cutoff:          1E-12
    Fitting Condition:       1E-12

   => Auxiliary Basis Set <=

  Basis Set: 
    Number of shells: 18
    Number of basis function: 46
    Number of Cartesian functions: 50
    Spherical Harmonics?: true
    Max angular momentum: 2

  Minimum eigenvalue in the overlap matrix is 2.6103246186E-01.
  Using Symmetric Orthogonalization.
  SCF Guess: Core (One-Electron) Hamiltonian.

  ==> Iterations <==

                           Total Energy        Delta E     RMS |[F,P]|

   @DF-RHF iter   1:    -0.82089566805966   -8.20896e-01   1.24480e-02 
   @DF-RHF iter   2:    -0.83971911340060   -1.88234e-02   2.11573e-03 DIIS
   @DF-RHF iter   3:    -0.84028452825285   -5.65415e-04   2.28592e-05 DIIS
   @DF-RHF iter   4:    -0.84028457421083   -4.59580e-08   7.48914e-07 DIIS
   @DF-RHF iter   5:    -0.84028457425722   -4.63956e-11   1.92252e-10 DIIS

  DF guess converged.

  ==> Integral Setup <==

 MINTS: Wrapper to libmints.
   by Justin Turney

   Calculation information:
      Number of atoms:                   2
      Number of AO shells:               6
      Number of SO shells:               6
      Number of primitives:             10
      Number of atomic orbitals:        10
      Number of basis functions:        10

      Number of irreps:                  1
      Integral cutoff                 0.00e+00
      Number of functions per irrep: [  10 ]

 OEINTS: Overlap, kinetic, potential, dipole, and quadrupole integrals
         stored in file 35.

      Computing two-electron integrals...done
      Computed 512 non-zero two-electron integrals.
        Stored in file 33.

	Batch   1 pq = [       0,      55] index = [             0,1540]
  ==> DiskJK: Disk-Based J/K Matrices <==

    J tasked:                  Yes
    K tasked:                  Yes
    wK tasked:                  No
    Memory (MB):               183
    Schwarz Cutoff:          1E-12

   @RHF iter   6:    -0.84025323262245    3.13416e-05   8.17870e-06 DIIS
   @RHF iter   7:    -0.84025324023741   -7.61495e-09   1.36753e-06 DIIS
   @RHF iter   8:    -0.84025324046590   -2.28495e-10   2.33655e-08 DIIS
   @RHF iter   9:    -0.84025324046595   -4.57412e-14   4.21042e-13 DIIS

  ==> Post-Iterations <==

    Orbital Energies (a.u.)
    -----------------------

    Doubly Occupied:                                                      

       1A     -0.332744  

    Virtual:                                                              

       2A     -0.104949     3A      0.603345     4A      0.676563  
       5A      1.462233     6A      1.462233     7A      1.463956  
       8A      1.465713     9A      1.465713    10A      1.486543  

    Final Occupation by Irrep:
              A 
    DOCC [     1 ]

  Energy converged.

  @RHF Final Energy:    -0.84025324046595

   => Energetics <=

    Nuclear Repulsion Energy =              0.1889918602107143
    One-Electron Energy =                  -1.3930019311787367
    Two-Electron Energy =                   0.3637568305020746
    DFT Exchange-Correlation Energy =       0.0000000000000000
    Empirical Dispersion Energy =           0.0000000000000000
    PCM Polarization Energy =               0.0000000000000000
    EFP Energy =                            0.0000000000000000
    Total Energy =                         -0.8402532404659477

    Alert: EFP and PCM quantities not currently incorporated into SCF psivars.

Properties will be evaluated at   0.000000,   0.000000,   0.000000 Bohr
  ==> Properties <==


Properties computed using the SCF density matrix

  Nuclear Dipole Moment: (a.u.)
     X:     0.0000      Y:     0.0000      Z:     0.0000

  Electronic Dipole Moment: (a.u.)
     X:    -0.0000      Y:    -0.0000      Z:    -0.0000

  Dipole Moment: (a.u.)
     X:    -0.0000      Y:    -0.0000      Z:    -0.0000     Total:     0.0000

  Dipole Moment: (Debye)
     X:    -0.0000      Y:    -0.0000      Z:    -0.0000     Total:     0.0000


  Saving occupied orbitals to File 180.

*** tstop() called on Kevins-MacBook-Pro.local at Fri Apr 10 18:02:16 2015
Module time:
	user time   =       0.20 seconds =       0.00 minutes
	system time =       0.01 seconds =       0.00 minutes
	total time  =          0 seconds =       0.00 minutes
Total time:
	user time   =       0.42 seconds =       0.01 minutes
	system time =       0.02 seconds =       0.00 minutes
	total time  =          0 seconds =       0.00 minutes
Reading options from the SCF block
Calling plugin scf.so.
    Molecular point group: c1
    Full point group: D_inf_h

    Geometry (in Angstrom), charge = 0, multiplicity = 1:

       Center              X                  Y                   Z       
    ------------   -----------------  -----------------  -----------------
           H          0.000000000000     0.000000000000    -1.400000000000
           H          0.000000000000     0.000000000000     1.400000000000


    Nuclear repulsion energy:       0.18899186

  ## Overlap (Symmetry 0) ##
  Irrep: 1 Size: 10 x 10

                 1                   2                   3                   4                   5

    1     1.00000000000000     0.68486025149275     0.00000000000000     0.00000000000000     0.00000000000000
    2     0.68486025149275     1.00000000000000     0.00000000000000     0.00000000000000     0.00000000000000
    3     0.00000000000000     0.00000000000000     1.00000000000000     0.00000000000000     0.00000000000000
    4     0.00000000000000     0.00000000000000     0.00000000000000     1.00000000000000     0.00000000000000
    5     0.00000000000000     0.00000000000000     0.00000000000000     0.00000000000000     1.00000000000000
    6     0.00132238884738     0.04470237401397     0.00117818314613     0.00000000000000     0.00000000000000
    7     0.04470237401397     0.18125941217389     0.04089532473691     0.00000000000000     0.00000000000000
    8    -0.00117818314613    -0.04089532473691    -0.00073615627535     0.00000000000000     0.00000000000000
    9     0.00000000000000     0.00000000000000     0.00000000000000     0.00003803653271     0.00000000000000
   10     0.00000000000000     0.00000000000000     0.00000000000000     0.00000000000000     0.00003803653271

                 6                   7                   8                   9                  10

    1     0.00132238884738     0.04470237401397    -0.00117818314613     0.00000000000000     0.00000000000000
    2     0.04470237401397     0.18125941217389    -0.04089532473691     0.00000000000000     0.00000000000000
    3     0.00117818314613     0.04089532473691    -0.00073615627535     0.00000000000000     0.00000000000000
    4     0.00000000000000     0.00000000000000     0.00000000000000     0.00003803653271     0.00000000000000
    5     0.00000000000000     0.00000000000000     0.00000000000000     0.00000000000000     0.00003803653271
    6     1.00000000000000     0.68486025149275    -0.00000000000000     0.00000000000000     0.00000000000000
    7     0.68486025149275     1.00000000000000    -0.00000000000000     0.00000000000000     0.00000000000000
    8    -0.00000000000000    -0.00000000000000     1.00000000000000     0.00000000000000     0.00000000000000
    9     0.00000000000000     0.00000000000000     0.00000000000000     1.00000000000000     0.00000000000000
   10     0.00000000000000     0.00000000000000     0.00000000000000     0.00000000000000     1.00000000000000



  ## Kinetic (Symmetry 0) ##
  Irrep: 1 Size: 10 x 10

                 1                   2                   3                   4                   5

    1     0.96945722711242     0.20123413106538    -0.00000000000000     0.00000000000000     0.00000000000000
    2     0.20123413106538     0.18300000000000     0.00000000000000     0.00000000000000     0.00000000000000
    3    -0.00000000000000     0.00000000000000     1.81750000000000     0.00000000000000     0.00000000000000
    4     0.00000000000000     0.00000000000000     0.00000000000000     1.81750000000000     0.00000000000000
    5     0.00000000000000     0.00000000000000     0.00000000000000     0.00000000000000     1.81750000000000
    6    -0.00282039696214    -0.01063272621454    -0.00340067981052     0.00000000000000     0.00000000000000
    7    -0.01063272621454    -0.00459579233697    -0.00362997371259     0.00000000000000     0.00000000000000
    8     0.00340067981052     0.00362997371259     0.00354576222451     0.00000000000000     0.00000000000000
    9     0.00000000000000     0.00000000000000     0.00000000000000    -0.00021228768753     0.00000000000000
   10     0.00000000000000     0.00000000000000     0.00000000000000     0.00000000000000    -0.00021228768753

                 6                   7                   8                   9                  10

    1    -0.00282039696214    -0.01063272621454     0.00340067981052     0.00000000000000     0.00000000000000
    2    -0.01063272621454    -0.00459579233697     0.00362997371259     0.00000000000000     0.00000000000000
    3    -0.00340067981052    -0.00362997371259     0.00354576222451     0.00000000000000     0.00000000000000
    4     0.00000000000000     0.00000000000000     0.00000000000000    -0.00021228768753     0.00000000000000
    5     0.00000000000000     0.00000000000000     0.00000000000000     0.00000000000000    -0.00021228768753
    6     0.96945722711242     0.20123413106538     0.00000000000000     0.00000000000000     0.00000000000000
    7     0.20123413106538     0.18300000000000    -0.00000000000000     0.00000000000000     0.00000000000000
    8     0.00000000000000    -0.00000000000000     1.81750000000000     0.00000000000000     0.00000000000000
    9     0.00000000000000     0.00000000000000     0.00000000000000     1.81750000000000     0.00000000000000
   10     0.00000000000000     0.00000000000000     0.00000000000000     0.00000000000000     1.81750000000000



  ## Potential (Symmetry 0) ##
  Irrep: 1 Size: 10 x 10

                 1                   2                   3                   4                   5

    1    -1.56685364489978    -0.77914021656071    -0.02247103396778     0.00000000000000     0.00000000000000
    2    -0.77914021656071    -0.74632870695345    -0.02107899271680     0.00000000000000     0.00000000000000
    3    -0.02247103396778    -0.02107899271680    -1.10071535976281     0.00000000000000     0.00000000000000
    4     0.00000000000000     0.00000000000000     0.00000000000000    -1.09375140162664     0.00000000000000
    5     0.00000000000000     0.00000000000000     0.00000000000000     0.00000000000000    -1.09375140162664
    6    -0.00100424915792    -0.04392806115679    -0.00090706556859     0.00000000000000     0.00000000000000
    7    -0.04392806115679    -0.12817693867685    -0.03640026520341     0.00000000000000     0.00000000000000
    8     0.00090706556859     0.03640026520341     0.00055368549777     0.00000000000000     0.00000000000000
    9     0.00000000000000     0.00000000000000     0.00000000000000    -0.00002734167870     0.00000000000000
   10     0.00000000000000     0.00000000000000     0.00000000000000     0.00000000000000    -0.00002734167870

                 6                   7                   8                   9                  10

    1    -0.00100424915792    -0.04392806115679     0.00090706556859     0.00000000000000     0.00000000000000
    2    -0.04392806115679    -0.12817693867685     0.03640026520341     0.00000000000000     0.00000000000000
    3    -0.00090706556859    -0.03640026520341     0.00055368549777     0.00000000000000     0.00000000000000
    4     0.00000000000000     0.00000000000000     0.00000000000000    -0.00002734167870     0.00000000000000
    5     0.00000000000000     0.00000000000000     0.00000000000000     0.00000000000000    -0.00002734167870
    6    -1.56685364489978    -0.77914021656071     0.02247103396778     0.00000000000000     0.00000000000000
    7    -0.77914021656071    -0.74632870695345     0.02107899271680     0.00000000000000     0.00000000000000
    8     0.02247103396778     0.02107899271680    -1.10071535976281     0.00000000000000     0.00000000000000
    9     0.00000000000000     0.00000000000000     0.00000000000000    -1.09375140162664     0.00000000000000
   10     0.00000000000000     0.00000000000000     0.00000000000000     0.00000000000000    -1.09375140162664



  ## One Electron Ints (Symmetry 0) ##
  Irrep: 1 Size: 10 x 10

                 1                   2                   3                   4                   5

    1    -0.59739641778736    -0.57790608549532    -0.02247103396778     0.00000000000000     0.00000000000000
    2    -0.57790608549532    -0.56332870695345    -0.02107899271680     0.00000000000000     0.00000000000000
    3    -0.02247103396778    -0.02107899271680     0.71678464023719     0.00000000000000     0.00000000000000
    4     0.00000000000000     0.00000000000000     0.00000000000000     0.72374859837336     0.00000000000000
    5     0.00000000000000     0.00000000000000     0.00000000000000     0.00000000000000     0.72374859837336
    6    -0.00382464612006    -0.05456078737132    -0.00430774537911     0.00000000000000     0.00000000000000
    7    -0.05456078737132    -0.13277273101382    -0.04003023891600     0.00000000000000     0.00000000000000
    8     0.00430774537911     0.04003023891600     0.00409944772228     0.00000000000000     0.00000000000000
    9     0.00000000000000     0.00000000000000     0.00000000000000    -0.00023962936623     0.00000000000000
   10     0.00000000000000     0.00000000000000     0.00000000000000     0.00000000000000    -0.00023962936623

                 6                   7                   8                   9                  10

    1    -0.00382464612006    -0.05456078737132     0.00430774537911     0.00000000000000     0.00000000000000
    2    -0.05456078737132    -0.13277273101382     0.04003023891600     0.00000000000000     0.00000000000000
    3    -0.00430774537911    -0.04003023891600     0.00409944772228     0.00000000000000     0.00000000000000
    4     0.00000000000000     0.00000000000000     0.00000000000000    -0.00023962936623     0.00000000000000
    5     0.00000000000000     0.00000000000000     0.00000000000000     0.00000000000000    -0.00023962936623
    6    -0.59739641778736    -0.57790608549532     0.02247103396778     0.00000000000000     0.00000000000000
    7    -0.57790608549532    -0.56332870695345     0.02107899271680     0.00000000000000     0.00000000000000
    8     0.02247103396778     0.02107899271680     0.71678464023719     0.00000000000000     0.00000000000000
    9     0.00000000000000     0.00000000000000     0.00000000000000     0.72374859837336     0.00000000000000
   10     0.00000000000000     0.00000000000000     0.00000000000000     0.00000000000000     0.72374859837336




	There are 0 unique integrals

  ## Fock (Symmetry 0) ##
  Irrep: 1 Size: 10 x 10

                 1                   2                   3                   4                   5

    1    -0.36602468608175    -0.34928891632128    -0.02217019764376    -0.00000000000000     0.00000000000000
    2    -0.34928891632128    -0.30357469897050    -0.00482208994550     0.00000000000000     0.00000000000000
    3    -0.02217019764376    -0.00482208994550     0.72031774594550    -0.00000000000000     0.00000000000000
    4    -0.00000000000000     0.00000000000000    -0.00000000000000     0.72374860853513     0.00000000000000
    5     0.00000000000000     0.00000000000000     0.00000000000000     0.00000000000000     0.72374860853513
    6    -0.00297521281659     0.01641643916875     0.03239968630397    -0.00000000000000     0.00000000000000
    7     0.01641643916875    -0.06880935919608    -0.06473769017411     0.00000000000000     0.00000000000000
    8    -0.03239968630397     0.06473769017411     0.00474392361132     0.00000000000000     0.00000000000000
    9     0.00000000000000     0.00000000000000     0.00000000000000    -0.00026715825385     0.00000000000000
   10     0.00000000000000     0.00000000000000     0.00000000000000     0.00000000000000    -0.00026715825385

                 6                   7                   8                   9                  10

    1    -0.00297521281659     0.01641643916875    -0.03239968630397     0.00000000000000     0.00000000000000
    2     0.01641643916875    -0.06880935919608     0.06473769017411     0.00000000000000     0.00000000000000
    3     0.03239968630397    -0.06473769017411     0.00474392361132     0.00000000000000     0.00000000000000
    4    -0.00000000000000     0.00000000000000     0.00000000000000    -0.00026715825385     0.00000000000000
    5     0.00000000000000     0.00000000000000     0.00000000000000     0.00000000000000    -0.00026715825385
    6    -0.36602468608175    -0.34928891632128     0.02217019764376     0.00000000000000     0.00000000000000
    7    -0.34928891632128    -0.30357469897050     0.00482208994550     0.00000000000000     0.00000000000000
    8     0.02217019764376     0.00482208994550     0.72031774594550    -0.00000000000000     0.00000000000000
    9     0.00000000000000     0.00000000000000    -0.00000000000000     0.72374860853513     0.00000000000000
   10     0.00000000000000     0.00000000000000     0.00000000000000     0.00000000000000     0.72374860853513



  ## C (Symmetry 0) ##
  Irrep: 1 Size: 10 x 10

                 1                   2                   3                   4                   5

    1    -0.91687521357369    -0.88030489306560    -0.02790272635252    -0.03754355786731     0.02287785478558
    2     0.96213708365440     0.85633917810701     0.01332269838747     0.10894822666972    -0.05931163911247
    3    -0.49895286094238     0.49884046827320     0.05233599072990     0.02176808124509    -0.01175880119525
    4     0.45111461662792    -0.53771523971307     0.08577834334784    -0.00001344794512    -0.00000000000000
    5     0.02239016994347    -0.05165821511061     0.70487499075076     0.00000000000001     0.00000000000000
    6     0.02877330401489     0.04027228569563     0.00126999491589     0.36630949488960    -0.90772166643112
    7    -0.09438505289143    -0.11195467267093    -0.00297955235317    -0.92324009918889     0.36994333951038
    8     0.02439049270426     0.02234441860467     0.00041779613200     0.00363384462031    -0.70922960034834
    9    -0.00000857941794     0.00001022641166    -0.00000163135541     0.70710678157108     0.00000000000000
   10     0.05641137967274    -0.06463944906264    -0.70189610438640     0.00000000000000     0.00000000000000

                 6                   7                   8                   9                  10

    1    -0.35575094069002    -0.40927710266965     0.02618364463583    -0.03754355786741     0.00013985496792
    2    -0.45211080394278    -0.33083109728248    -0.00898995463725     0.10894822666999    -0.01577547662224
    3    -0.50451929710848     0.49416780260107    -0.05231893718383     0.02176808124514    -0.01097919862241
    4    -0.45111461662792     0.53771523971307     0.08577834334784     0.00001344794512    -0.00000000000000
    5     0.02239231565295    -0.05166067380850    -0.70484829356658    -0.00000000000006     0.00000000000000
    6    -0.02873708516055    -0.00800399256784    -0.00109380389489     0.36630949489053    -0.90487765481038
    7     0.07250522793635     0.02813900000675     0.00246826092572    -0.92324009919122     0.36267565026976
    8    -0.00895453091956    -0.00564658723350    -0.00031563904626     0.00363384462031     0.70638558872759
    9     0.00000857941794    -0.00001022641165    -0.00000163135534    -0.70710678156929     0.00000000000000
   10    -0.05641223135798     0.06464141400879    -0.70186929389341    -0.00000000000002     0.00000000000000




 In Bisection function HOMO = -0.705  LUMO =  0.735

 0.01507 = (-0.70482 + 0.73497)/2.0
 sum -  nocc_ = 2.00000000
 On Iteration in Bisection 0
 a: 2.00000  b:-0.50000

 -0.34487 = (-0.70482 + 0.01507)/2.0
 sum -  nocc_ = 1.00000000
 On Iteration in Bisection 1
 a: 1.00000  b:-0.50000

 -0.52485 = (-0.70482 + -0.34487)/2.0
 sum -  nocc_ = 1.00000000
 On Iteration in Bisection 2
 a: 1.00000  b:-0.50000

 -0.61483 = (-0.70482 + -0.52485)/2.0
 sum -  nocc_ = 1.00000000
 On Iteration in Bisection 3
 a: 1.00000  b:-0.50000

 -0.65983 = (-0.70482 + -0.61483)/2.0
 sum -  nocc_ = 1.00000000
 On Iteration in Bisection 4
 a: 1.00000  b:-0.50000

 -0.68232 = (-0.70482 + -0.65983)/2.0
 sum -  nocc_ = 0.00000000
 ef = -0.68232 sum = 1.00000 

 Iter: 0  T:      100.000  val:-0.682324  sumni 0.00000
 ne = 1.0000

Nuc Replusion =       0.188991860211
 1st iteration =       0.663561043301
 In Bisection function HOMO = -0.312  LUMO =  1.887

 0.78724 = (-0.31217 + 1.88664)/2.0
 sum -  nocc_ = 3.00000000
 On Iteration in Bisection 0
 a: 3.00000  b:-0.50000

 0.23753 = (-0.31217 + 0.78724)/2.0
 sum -  nocc_ = 0.99913591
 On Iteration in Bisection 1
 a: 0.99914  b:-0.50000

 -0.03732 = (-0.31217 + 0.23753)/2.0
 sum -  nocc_ = 0.00000000
 ef = -0.03732 sum = 1.00000 

 Iter: 0  T:      100.000  val:-0.037318  sumni 0.00000
 ne = 1.0000

 iter:1  failiter:1  energy:     -0.998826948087  total:     -0.809835087877  error:     -0.158573707621
 In Bisection function HOMO = -0.316  LUMO =  1.917

 0.80068 = (-0.31606 + 1.91743)/2.0
 sum -  nocc_ = 2.00000000
 On Iteration in Bisection 0
 a: 2.00000  b:-0.50000

 0.24231 = (-0.31606 + 0.80068)/2.0
 sum -  nocc_ = 1.00000000
 On Iteration in Bisection 1
 a: 1.00000  b:-0.50000

 -0.03688 = (-0.31606 + 0.24231)/2.0
 sum -  nocc_ = 1.00000000
 On Iteration in Bisection 2
 a: 1.00000  b:-0.50000

 -0.17647 = (-0.31606 + -0.03688)/2.0
 sum -  nocc_ = 0.00000000
 ef = -0.17647 sum = 1.00000 

 Iter: 1  T:      100.000  val:-0.176470  sumni 0.00000
 ne = 1.0000

 iter:2  failiter:2  energy:     -1.005414754912  total:     -0.816422894701  error:     -0.006587806825
 In Bisection function HOMO = -0.318  LUMO =  1.908

 0.79538 = (-0.31765 + 1.90840)/2.0
 sum -  nocc_ = 2.00000000
 On Iteration in Bisection 0
 a: 2.00000  b:-0.50000

 0.23887 = (-0.31765 + 0.79538)/2.0
 sum -  nocc_ = 1.00000000
 On Iteration in Bisection 1
 a: 1.00000  b:-0.50000

 -0.03939 = (-0.31765 + 0.23887)/2.0
 sum -  nocc_ = 1.00000000
 On Iteration in Bisection 2
 a: 1.00000  b:-0.50000

 -0.17852 = (-0.31765 + -0.03939)/2.0
 sum -  nocc_ = 0.00000000
 ef = -0.17852 sum = 1.00000 

 Iter: 2  T:      100.000  val:-0.178519  sumni 0.00000
 ne = 1.0000

 iter:3  failiter:3  energy:     -1.009138999126  total:     -0.820147138915  error:     -0.003724244214
 In Bisection function HOMO = -0.319  LUMO =  1.891

 0.78649 = (-0.31850 + 1.89148)/2.0
 sum -  nocc_ = 2.00000000
 On Iteration in Bisection 0
 a: 2.00000  b:-0.50000

 0.23400 = (-0.31850 + 0.78649)/2.0
 sum -  nocc_ = 1.00000000
 On Iteration in Bisection 1
 a: 1.00000  b:-0.50000

 -0.04225 = (-0.31850 + 0.23400)/2.0
 sum -  nocc_ = 1.00000000
 On Iteration in Bisection 2
 a: 1.00000  b:-0.50000

 -0.18038 = (-0.31850 + -0.04225)/2.0
 sum -  nocc_ = 0.00000000
 ef = -0.18038 sum = 1.00000 

 Iter: 3  T:      100.000  val:-0.180376  sumni 0.00000
 ne = 1.0000

 iter:4  failiter:4  energy:     -1.011642405221  total:     -0.822650545010  error:     -0.002503406095
 In Bisection function HOMO = -0.319  LUMO =  1.871

 0.77591 = (-0.31920 + 1.87103)/2.0
 sum -  nocc_ = 2.00000000
 On Iteration in Bisection 0
 a: 2.00000  b:-0.50000

 0.22835 = (-0.31920 + 0.77591)/2.0
 sum -  nocc_ = 1.00000000
 On Iteration in Bisection 1
 a: 1.00000  b:-0.50000

 -0.04543 = (-0.31920 + 0.22835)/2.0
 sum -  nocc_ = 1.00000000
 On Iteration in Bisection 2
 a: 1.00000  b:-0.50000

 -0.18231 = (-0.31920 + -0.04543)/2.0
 sum -  nocc_ = 0.00000000
 ef = -0.18231 sum = 1.00000 

 Iter: 4  T:      100.000  val:-0.182315  sumni 0.00000
 ne = 1.0000

 iter:5  failiter:5  energy:     -1.013638251509  total:     -0.824646391298  error:     -0.001995846288
 In Bisection function HOMO = -0.320  LUMO =  1.849

 0.76431 = (-0.31992 + 1.84854)/2.0
 sum -  nocc_ = 2.00000000
 On Iteration in Bisection 0
 a: 2.00000  b:-0.50000

 0.22219 = (-0.31992 + 0.76431)/2.0
 sum -  nocc_ = 1.00000000
 On Iteration in Bisection 1
 a: 1.00000  b:-0.50000

 -0.04886 = (-0.31992 + 0.22219)/2.0
 sum -  nocc_ = 1.00000000
 On Iteration in Bisection 2
 a: 1.00000  b:-0.50000

 -0.18439 = (-0.31992 + -0.04886)/2.0
 sum -  nocc_ = 0.00000000
 ef = -0.18439 sum = 1.00000 

 Iter: 5  T:      100.000  val:-0.184392  sumni 0.00000
 ne = 1.0000

 iter:6  failiter:6  energy:     -1.015363889841  total:     -0.826372029631  error:     -0.001725638332
 In Bisection function HOMO = -0.321  LUMO =  1.824

 0.75186 = (-0.32073 + 1.82445)/2.0
 sum -  nocc_ = 2.00000000
 On Iteration in Bisection 0
 a: 2.00000  b:-0.50000

 0.21557 = (-0.32073 + 0.75186)/2.0
 sum -  nocc_ = 1.00000000
 On Iteration in Bisection 1
 a: 1.00000  b:-0.50000

 -0.05258 = (-0.32073 + 0.21557)/2.0
 sum -  nocc_ = 1.00000000
 On Iteration in Bisection 2
 a: 1.00000  b:-0.50000

 -0.18666 = (-0.32073 + -0.05258)/2.0
 sum -  nocc_ = 0.00000000
 ef = -0.18666 sum = 1.00000 

 Iter: 6  T:      100.000  val:-0.186656  sumni 0.00000
 ne = 1.0000

 iter:7  failiter:7  energy:     -1.016945316621  total:     -0.827953456410  error:     -0.001581426780
 In Bisection function HOMO = -0.322  LUMO =  1.799

 0.73862 = (-0.32167 + 1.79892)/2.0
 sum -  nocc_ = 2.00000000
 On Iteration in Bisection 0
 a: 2.00000  b:-0.50000

 0.20848 = (-0.32167 + 0.73862)/2.0
 sum -  nocc_ = 1.00000000
 On Iteration in Bisection 1
 a: 1.00000  b:-0.50000

 -0.05659 = (-0.32167 + 0.20848)/2.0
 sum -  nocc_ = 1.00000000
 On Iteration in Bisection 2
 a: 1.00000  b:-0.50000

 -0.18913 = (-0.32167 + -0.05659)/2.0
 sum -  nocc_ = 0.00000000
 ef = -0.18913 sum = 1.00000 

 Iter: 7  T:      100.000  val:-0.189131  sumni 0.00000
 ne = 1.0000

 iter:8  failiter:8  energy:     -1.018447305331  total:     -0.829455445121  error:     -0.001501988710
 In Bisection function HOMO = -0.323  LUMO =  1.772

 0.72466 = (-0.32274 + 1.77207)/2.0
 sum -  nocc_ = 2.00000000
 On Iteration in Bisection 0
 a: 2.00000  b:-0.50000

 0.20096 = (-0.32274 + 0.72466)/2.0
 sum -  nocc_ = 1.00000000
 On Iteration in Bisection 1
 a: 1.00000  b:-0.50000

 -0.06089 = (-0.32274 + 0.20096)/2.0
 sum -  nocc_ = 1.00000000
 On Iteration in Bisection 2
 a: 1.00000  b:-0.50000

 -0.19182 = (-0.32274 + -0.06089)/2.0
 sum -  nocc_ = 0.00000000
 ef = -0.19182 sum = 1.00000 

 Iter: 8  T:      100.000  val:-0.191818  sumni 0.00000
 ne = 1.0000

 iter:9  failiter:9  energy:     -1.019899389925  total:     -0.830907529714  error:     -0.001452084594
 In Bisection function HOMO = -0.324  LUMO =  1.744

 0.71012 = (-0.32394 + 1.74418)/2.0
 sum -  nocc_ = 2.00000000
 On Iteration in Bisection 0
 a: 2.00000  b:-0.50000

 0.19309 = (-0.32394 + 0.71012)/2.0
 sum -  nocc_ = 1.00000000
 On Iteration in Bisection 1
 a: 1.00000  b:-0.50000

 -0.06543 = (-0.32394 + 0.19309)/2.0
 sum -  nocc_ = 1.00000000
 On Iteration in Bisection 2
 a: 1.00000  b:-0.50000

 -0.19468 = (-0.32394 + -0.06543)/2.0
 sum -  nocc_ = 0.00000000
 ef = -0.19468 sum = 1.00000 

 Iter: 9  T:      100.000  val:-0.194683  sumni 0.00000
 ne = 1.0000

 iter:10  failiter:10  energy:     -1.021306221888  total:     -0.832314361677  error:     -0.001406831963
 In Bisection function HOMO = -0.325  LUMO =  1.716

 0.69524 = (-0.32522 + 1.71570)/2.0
 sum -  nocc_ = 2.00000000
 On Iteration in Bisection 0
 a: 2.00000  b:-0.50000

 0.18501 = (-0.32522 + 0.69524)/2.0
 sum -  nocc_ = 1.00000000
 On Iteration in Bisection 1
 a: 1.00000  b:-0.50000

 -0.07010 = (-0.32522 + 0.18501)/2.0
 sum -  nocc_ = 1.00000000
 On Iteration in Bisection 2
 a: 1.00000  b:-0.50000

 -0.19766 = (-0.32522 + -0.07010)/2.0
 sum -  nocc_ = 0.00000000
 ef = -0.19766 sum = 1.00000 

 Iter: 10  T:      100.000  val:-0.197660  sumni 0.00000
 ne = 1.0000

 iter:11  failiter:11  energy:     -1.022653067050  total:     -0.833661206839  error:     -0.001346845162
 In Bisection function HOMO = -0.327  LUMO =  1.687

 0.68037 = (-0.32651 + 1.68725)/2.0
 sum -  nocc_ = 2.00000000
 On Iteration in Bisection 0
 a: 2.00000  b:-0.50000

 0.17693 = (-0.32651 + 0.68037)/2.0
 sum -  nocc_ = 1.00000000
 On Iteration in Bisection 1
 a: 1.00000  b:-0.50000

 -0.07479 = (-0.32651 + 0.17693)/2.0
 sum -  nocc_ = 1.00000000
 On Iteration in Bisection 2
 a: 1.00000  b:-0.50000

 -0.20065 = (-0.32651 + -0.07479)/2.0
 sum -  nocc_ = 0.00000000
 ef = -0.20065 sum = 1.00000 

 Iter: 11  T:      100.000  val:-0.200650  sumni 0.00000
 ne = 1.0000

 iter:12  failiter:12  energy:     -1.023911577089  total:     -0.834919716879  error:     -0.001258510040
 In Bisection function HOMO = -0.328  LUMO =  1.660

 0.66593 = (-0.32775 + 1.65960)/2.0
 sum -  nocc_ = 2.00000000
 On Iteration in Bisection 0
 a: 2.00000  b:-0.50000

 0.16909 = (-0.32775 + 0.66593)/2.0
 sum -  nocc_ = 1.00000000
 On Iteration in Bisection 1
 a: 1.00000  b:-0.50000

 -0.07933 = (-0.32775 + 0.16909)/2.0
 sum -  nocc_ = 1.00000000
 On Iteration in Bisection 2
 a: 1.00000  b:-0.50000

 -0.20354 = (-0.32775 + -0.07933)/2.0
 sum -  nocc_ = 0.00000000
 ef = -0.20354 sum = 1.00000 

 Iter: 12  T:      100.000  val:-0.203541  sumni 0.00000
 ne = 1.0000

 iter:13  failiter:13  energy:     -1.025048078379  total:     -0.836056218168  error:     -0.001136501290
 In Bisection function HOMO = -0.329  LUMO =  1.634

 0.65232 = (-0.32887 + 1.63350)/2.0
 sum -  nocc_ = 2.00000000
 On Iteration in Bisection 0
 a: 2.00000  b:-0.50000

 0.16172 = (-0.32887 + 0.65232)/2.0
 sum -  nocc_ = 1.00000000
 On Iteration in Bisection 1
 a: 1.00000  b:-0.50000

 -0.08357 = (-0.32887 + 0.16172)/2.0
 sum -  nocc_ = 1.00000000
 On Iteration in Bisection 2
 a: 1.00000  b:-0.50000

 -0.20622 = (-0.32887 + -0.08357)/2.0
 sum -  nocc_ = 0.00000000
 ef = -0.20622 sum = 1.00000 

 Iter: 13  T:      100.000  val:-0.206223  sumni 0.00000
 ne = 1.0000

 iter:14  failiter:14  energy:     -1.026033526672  total:     -0.837041666461  error:     -0.000985448293
 In Bisection function HOMO = -0.330  LUMO =  1.610

 0.63987 = (-0.32983 + 1.60957)/2.0
 sum -  nocc_ = 2.00000000
 On Iteration in Bisection 0
 a: 2.00000  b:-0.50000

 0.15502 = (-0.32983 + 0.63987)/2.0
 sum -  nocc_ = 1.00000000
 On Iteration in Bisection 1
 a: 1.00000  b:-0.50000

 -0.08741 = (-0.32983 + 0.15502)/2.0
 sum -  nocc_ = 1.00000000
 On Iteration in Bisection 2
 a: 1.00000  b:-0.50000

 -0.20862 = (-0.32983 + -0.08741)/2.0
 sum -  nocc_ = 0.00000000
 ef = -0.20862 sum = 1.00000 

 Iter: 14  T:      100.000  val:-0.208618  sumni 0.00000
 ne = 1.0000

 iter:15  failiter:15  energy:     -1.026851831398  total:     -0.837859971187  error:     -0.000818304726
 In Bisection function HOMO = -0.331  LUMO =  1.588

 0.62880 = (-0.33061 + 1.58821)/2.0
 sum -  nocc_ = 2.00000000
 On Iteration in Bisection 0
 a: 2.00000  b:-0.50000

 0.14910 = (-0.33061 + 0.62880)/2.0
 sum -  nocc_ = 1.00000000
 On Iteration in Bisection 1
 a: 1.00000  b:-0.50000

 -0.09076 = (-0.33061 + 0.14910)/2.0
 sum -  nocc_ = 1.00000000
 On Iteration in Bisection 2
 a: 1.00000  b:-0.50000

 -0.21068 = (-0.33061 + -0.09076)/2.0
 sum -  nocc_ = 0.00000000
 ef = -0.21068 sum = 1.00000 

 Iter: 15  T:      100.000  val:-0.210682  sumni 0.00000
 ne = 1.0000

 iter:16  failiter:16  energy:     -1.027503294262  total:     -0.838511434051  error:     -0.000651462864
 In Bisection function HOMO = -0.331  LUMO =  1.570

 0.61919 = (-0.33121 + 1.56960)/2.0
 sum -  nocc_ = 2.00000000
 On Iteration in Bisection 0
 a: 2.00000  b:-0.50000

 0.14399 = (-0.33121 + 0.61919)/2.0
 sum -  nocc_ = 1.00000000
 On Iteration in Bisection 1
 a: 1.00000  b:-0.50000

 -0.09361 = (-0.33121 + 0.14399)/2.0
 sum -  nocc_ = 1.00000000
 On Iteration in Bisection 2
 a: 1.00000  b:-0.50000

 -0.21241 = (-0.33121 + -0.09361)/2.0
 sum -  nocc_ = 0.00000000
 ef = -0.21241 sum = 1.00000 

 Iter: 16  T:      100.000  val:-0.212413  sumni 0.00000
 ne = 1.0000

 iter:17  failiter:17  energy:     -1.028002497487  total:     -0.839010637276  error:     -0.000499203225
 In Bisection function HOMO = -0.332  LUMO =  1.554

 0.61101 = (-0.33167 + 1.55369)/2.0
 sum -  nocc_ = 2.00000000
 On Iteration in Bisection 0
 a: 2.00000  b:-0.50000

 0.13967 = (-0.33167 + 0.61101)/2.0
 sum -  nocc_ = 1.00000000
 On Iteration in Bisection 1
 a: 1.00000  b:-0.50000

 -0.09600 = (-0.33167 + 0.13967)/2.0
 sum -  nocc_ = 1.00000000
 On Iteration in Bisection 2
 a: 1.00000  b:-0.50000

 -0.21383 = (-0.33167 + -0.09600)/2.0
 sum -  nocc_ = 0.00000000
 ef = -0.21383 sum = 1.00000 

 Iter: 17  T:      100.000  val:-0.213831  sumni 0.00000
 ne = 1.0000

 iter:18  failiter:18  energy:     -1.028372778008  total:     -0.839380917797  error:     -0.000370280521
 In Bisection function HOMO = -0.332  LUMO =  1.540

 0.60415 = (-0.33200 + 1.54030)/2.0
 sum -  nocc_ = 2.00000000
 On Iteration in Bisection 0
 a: 2.00000  b:-0.50000

 0.13608 = (-0.33200 + 0.60415)/2.0
 sum -  nocc_ = 1.00000000
 On Iteration in Bisection 1
 a: 1.00000  b:-0.50000

 -0.09796 = (-0.33200 + 0.13608)/2.0
 sum -  nocc_ = 1.00000000
 On Iteration in Bisection 2
 a: 1.00000  b:-0.50000

 -0.21498 = (-0.33200 + -0.09796)/2.0
 sum -  nocc_ = 0.00000000
 ef = -0.21498 sum = 1.00000 

 Iter: 18  T:      100.000  val:-0.214976  sumni 0.00000
 ne = 1.0000

 iter:19  failiter:19  energy:     -1.028640289597  total:     -0.839648429386  error:     -0.000267511589
 In Bisection function HOMO = -0.332  LUMO =  1.529

 0.59847 = (-0.33223 + 1.52917)/2.0
 sum -  nocc_ = 2.00000000
 On Iteration in Bisection 0
 a: 2.00000  b:-0.50000

 0.13312 = (-0.33223 + 0.59847)/2.0
 sum -  nocc_ = 1.00000000
 On Iteration in Bisection 1
 a: 1.00000  b:-0.50000

 -0.09955 = (-0.33223 + 0.13312)/2.0
 sum -  nocc_ = 0.99999996
 On Iteration in Bisection 2
 a: 1.00000  b:-0.50000

 -0.21589 = (-0.33223 + -0.09955)/2.0
 sum -  nocc_ = 0.00000000
 ef = -0.21589 sum = 1.00000 

 Iter: 19  T:      100.000  val:-0.215891  sumni 0.00000
 ne = 1.0000

 iter:20  failiter:20  energy:     -1.028829644468  total:     -0.839837784257  error:     -0.000189354871
 In Bisection function HOMO = -0.332  LUMO =  1.520

 0.59381 = (-0.33239 + 1.52001)/2.0
 sum -  nocc_ = 1.99500585
 On Iteration in Bisection 0
 a: 1.99501  b:-0.50000

 0.13071 = (-0.33239 + 0.59381)/2.0
 sum -  nocc_ = 1.00000000
 On Iteration in Bisection 1
 a: 1.00000  b:-0.50000

 -0.10084 = (-0.33239 + 0.13071)/2.0
 sum -  nocc_ = 0.99999770
 On Iteration in Bisection 2
 a: 1.00000  b:-0.50000

 -0.21662 = (-0.33239 + -0.10084)/2.0
 sum -  nocc_ = 0.00000000
 ef = -0.21662 sum = 1.00000 

 Iter: 20  T:      100.000  val:-0.216617  sumni 0.00000
 ne = 1.0000

 iter:21  failiter:21  energy:     -1.028961638755  total:     -0.839969778545  error:     -0.000131994287
 In Bisection function HOMO = -0.333  LUMO =  1.513

 0.59002 = (-0.33250 + 1.51254)/2.0
 sum -  nocc_ = 1.00000004
 On Iteration in Bisection 0
 a: 1.00000  b:-0.50000

 0.12876 = (-0.33250 + 0.59002)/2.0
 sum -  nocc_ = 1.00000000
 On Iteration in Bisection 1
 a: 1.00000  b:-0.50000

 -0.10187 = (-0.33250 + 0.12876)/2.0
 sum -  nocc_ = 0.99993984
 On Iteration in Bisection 2
 a: 0.99994  b:-0.50000

 -0.21719 = (-0.33250 + -0.10187)/2.0
 sum -  nocc_ = 0.00000000
 ef = -0.21719 sum = 1.00000 

 Iter: 21  T:      100.000  val:-0.217190  sumni 0.00000
 ne = 1.0000

 iter:22  failiter:22  energy:     -1.029052625920  total:     -0.840060765709  error:     -0.000090987165
 In Bisection function HOMO = -0.333  LUMO =  1.507

 0.58696 = (-0.33258 + 1.50650)/2.0
 sum -  nocc_ = 1.00000000
 On Iteration in Bisection 0
 a: 1.00000  b:-0.50000

 0.12719 = (-0.33258 + 0.58696)/2.0
 sum -  nocc_ = 1.00000000
 On Iteration in Bisection 1
 a: 1.00000  b:-0.50000

 -0.10270 = (-0.33258 + 0.12719)/2.0
 sum -  nocc_ = 0.99919134
 On Iteration in Bisection 2
 a: 0.99919  b:-0.50000

 -0.21764 = (-0.33258 + -0.10270)/2.0
 sum -  nocc_ = 0.00000000
 ef = -0.21764 sum = 1.00000 

 Iter: 22  T:      100.000  val:-0.217639  sumni 0.00000
 ne = 1.0000

 iter:23  failiter:23  energy:     -1.029114847476  total:     -0.840122987265  error:     -0.000062221556
 In Bisection function HOMO = -0.333  LUMO =  1.502

 0.58452 = (-0.33263 + 1.50167)/2.0
 sum -  nocc_ = 1.00000000
 On Iteration in Bisection 0
 a: 1.00000  b:-0.50000

 0.12594 = (-0.33263 + 0.58452)/2.0
 sum -  nocc_ = 1.00000000
 On Iteration in Bisection 1
 a: 1.00000  b:-0.50000

 -0.10335 = (-0.33263 + 0.12594)/2.0
 sum -  nocc_ = 0.99372393
 On Iteration in Bisection 2
 a: 0.99372  b:-0.50000

 -0.21799 = (-0.33263 + -0.10335)/2.0
 sum -  nocc_ = 0.00000000
 ef = -0.21799 sum = 1.00000 

 Iter: 23  T:      100.000  val:-0.217991  sumni 0.00000
 ne = 1.0000

 iter:24  failiter:24  energy:     -1.029157160067  total:     -0.840165299856  error:     -0.000042312591
 In Bisection function HOMO = -0.333  LUMO =  1.498

 0.58259 = (-0.33267 + 1.49785)/2.0
 sum -  nocc_ = 1.00000000
 On Iteration in Bisection 0
 a: 1.00000  b:-0.50000

 0.12496 = (-0.33267 + 0.58259)/2.0
 sum -  nocc_ = 1.00000000
 On Iteration in Bisection 1
 a: 1.00000  b:-0.50000

 -0.10386 = (-0.33267 + 0.12496)/2.0
 sum -  nocc_ = 0.96940775
 On Iteration in Bisection 2
 a: 0.96941  b:-0.50000

 -0.21826 = (-0.33267 + -0.10386)/2.0
 sum -  nocc_ = 0.00000000
 ef = -0.21826 sum = 1.00000 

 Iter: 24  T:      100.000  val:-0.218263  sumni 0.00000
 ne = 1.0000

 iter:25  failiter:25  energy:     -1.029185822448  total:     -0.840193962237  error:     -0.000028662381
 In Bisection function HOMO = -0.333  LUMO =  1.495

 0.58109 = (-0.33269 + 1.49487)/2.0
 sum -  nocc_ = 1.00000000
 On Iteration in Bisection 0
 a: 1.00000  b:-0.50000

 0.12420 = (-0.33269 + 0.58109)/2.0
 sum -  nocc_ = 1.00000000
 On Iteration in Bisection 1
 a: 1.00000  b:-0.50000

 -0.10425 = (-0.33269 + 0.12420)/2.0
 sum -  nocc_ = 0.90126636
 On Iteration in Bisection 2
 a: 0.90127  b:-0.50000

 -0.21847 = (-0.33269 + -0.10425)/2.0
 sum -  nocc_ = 0.00000000
 ef = -0.21847 sum = 1.00000 

 Iter: 25  T:      100.000  val:-0.218472  sumni 0.00000
 ne = 1.0000

 iter:26  failiter:26  energy:     -1.029205186517  total:     -0.840213326306  error:     -0.000019364069
 In Bisection function HOMO = -0.333  LUMO =  1.493

 0.57993 = (-0.33271 + 1.49258)/2.0
 sum -  nocc_ = 1.00000000
 On Iteration in Bisection 0
 a: 1.00000  b:-0.50000

 0.12361 = (-0.33271 + 0.57993)/2.0
 sum -  nocc_ = 1.00000000
 On Iteration in Bisection 1
 a: 1.00000  b:-0.50000

 -0.10455 = (-0.33271 + 0.12361)/2.0
 sum -  nocc_ = 0.77949625
 On Iteration in Bisection 2
 a: 0.77950  b:-0.50000

 -0.21863 = (-0.33271 + -0.10455)/2.0
 sum -  nocc_ = 0.00000000
 ef = -0.21863 sum = 1.00000 

 Iter: 26  T:      100.000  val:-0.218630  sumni 0.00000
 ne = 1.0000

 iter:27  failiter:27  energy:     -1.029218244937  total:     -0.840226384726  error:     -0.000013058420
 In Bisection function HOMO = -0.333  LUMO =  1.491

 0.57907 = (-0.33272 + 1.49086)/2.0
 sum -  nocc_ = 1.00000000
 On Iteration in Bisection 0
 a: 1.00000  b:-0.50000

 0.12317 = (-0.33272 + 0.57907)/2.0
 sum -  nocc_ = 1.00000000
 On Iteration in Bisection 1
 a: 1.00000  b:-0.50000

 -0.10477 = (-0.33272 + 0.12317)/2.0
 sum -  nocc_ = 0.63457921
 On Iteration in Bisection 2
 a: 0.63458  b:-0.50000

 -0.21875 = (-0.33272 + -0.10477)/2.0
 sum -  nocc_ = 0.00000000
 ef = -0.21875 sum = 1.00000 

 Iter: 27  T:      100.000  val:-0.218748  sumni 0.00000
 ne = 1.0000

 iter:28  failiter:28  energy:     -1.029227040180  total:     -0.840235179970  error:     -0.000008795244
 In Bisection function HOMO = -0.333  LUMO =  1.490

 0.57843 = (-0.33273 + 1.48958)/2.0
 sum -  nocc_ = 1.00000000
 On Iteration in Bisection 0
 a: 1.00000  b:-0.50000

 0.12285 = (-0.33273 + 0.57843)/2.0
 sum -  nocc_ = 1.00000000
 On Iteration in Bisection 1
 a: 1.00000  b:-0.50000

 -0.10494 = (-0.33273 + 0.12285)/2.0
 sum -  nocc_ = 0.50724116
 On Iteration in Bisection 2
 a: 0.50724  b:-0.50000

 -0.21883 = (-0.33273 + -0.10494)/2.0
 sum -  nocc_ = 0.00000000
 ef = -0.21883 sum = 1.00000 

 Iter: 28  T:      100.000  val:-0.218835  sumni 0.00000
 ne = 1.0000

 iter:29  failiter:29  energy:     -1.029232959092  total:     -0.840241098881  error:     -0.000005918911
 In Bisection function HOMO = -0.333  LUMO =  1.489

 0.57796 = (-0.33273 + 1.48866)/2.0
 sum -  nocc_ = 1.00000000
 On Iteration in Bisection 0
 a: 1.00000  b:-0.50000

 0.12261 = (-0.33273 + 0.57796)/2.0
 sum -  nocc_ = 1.00000000
 On Iteration in Bisection 1
 a: 1.00000  b:-0.50000

 -0.10506 = (-0.33273 + 0.12261)/2.0
 sum -  nocc_ = 0.41366450
 On Iteration in Bisection 2
 a: 0.41366  b:-0.50000

 -0.21890 = (-0.33273 + -0.10506)/2.0
 sum -  nocc_ = 0.00000000
 ef = -0.21890 sum = 1.00000 

 Iter: 29  T:      100.000  val:-0.218897  sumni 0.00000
 ne = 1.0000

 iter:30  failiter:30  energy:     -1.029236940076  total:     -0.840245079866  error:     -0.000003980985
 In Bisection function HOMO = -0.333  LUMO =  1.488

 0.57763 = (-0.33274 + 1.48800)/2.0
 sum -  nocc_ = 1.00000000
 On Iteration in Bisection 0
 a: 1.00000  b:-0.50000

 0.12245 = (-0.33274 + 0.57763)/2.0
 sum -  nocc_ = 1.00000000
 On Iteration in Bisection 1
 a: 1.00000  b:-0.50000

 -0.10514 = (-0.33274 + 0.12245)/2.0
 sum -  nocc_ = 0.35040207
 On Iteration in Bisection 2
 a: 0.35040  b:-0.50000

 -0.21894 = (-0.33274 + -0.10514)/2.0
 sum -  nocc_ = 0.00000000
 ef = -0.21894 sum = 1.00000 

 Iter: 30  T:      100.000  val:-0.218941  sumni 0.00000
 ne = 1.0000

 iter:31  failiter:31  energy:     -1.029239616617  total:     -0.840247756406  error:     -0.000002676540
 In Bisection function HOMO = -0.333  LUMO =  1.488

 0.57740 = (-0.33274 + 1.48754)/2.0
 sum -  nocc_ = 1.00000000
 On Iteration in Bisection 0
 a: 1.00000  b:-0.50000

 0.12233 = (-0.33274 + 0.57740)/2.0
 sum -  nocc_ = 1.00000000
 On Iteration in Bisection 1
 a: 1.00000  b:-0.50000

 -0.10520 = (-0.33274 + 0.12233)/2.0
 sum -  nocc_ = 0.30889243
 On Iteration in Bisection 2
 a: 0.30889  b:-0.50000

 -0.21897 = (-0.33274 + -0.10520)/2.0
 sum -  nocc_ = 0.00000000
 ef = -0.21897 sum = 1.00000 

 Iter: 31  T:      100.000  val:-0.218972  sumni 0.00000
 ne = 1.0000

 iter:32  failiter:32  energy:     -1.029241415677  total:     -0.840249555466  error:     -0.000001799060
 In Bisection function HOMO = -0.333  LUMO =  1.487

 0.57724 = (-0.33274 + 1.48722)/2.0
 sum -  nocc_ = 1.00000000
 On Iteration in Bisection 0
 a: 1.00000  b:-0.50000

 0.12225 = (-0.33274 + 0.57724)/2.0
 sum -  nocc_ = 1.00000000
 On Iteration in Bisection 1
 a: 1.00000  b:-0.50000

 -0.10525 = (-0.33274 + 0.12225)/2.0
 sum -  nocc_ = 0.28180827
 On Iteration in Bisection 2
 a: 0.28181  b:-0.50000

 -0.21899 = (-0.33274 + -0.10525)/2.0
 sum -  nocc_ = 0.00000000
 ef = -0.21899 sum = 1.00000 

 Iter: 32  T:      100.000  val:-0.218993  sumni 0.00000
 ne = 1.0000

 iter:33  failiter:33  energy:     -1.029242624723  total:     -0.840250764512  error:     -0.000001209046
 In Bisection function HOMO = -0.333  LUMO =  1.487

 0.57713 = (-0.33274 + 1.48701)/2.0
 sum -  nocc_ = 1.00000000
 On Iteration in Bisection 0
 a: 1.00000  b:-0.50000

 0.12219 = (-0.33274 + 0.57713)/2.0
 sum -  nocc_ = 1.00000000
 On Iteration in Bisection 1
 a: 1.00000  b:-0.50000

 -0.10527 = (-0.33274 + 0.12219)/2.0
 sum -  nocc_ = 0.26407665
 On Iteration in Bisection 2
 a: 0.26408  b:-0.50000

 -0.21901 = (-0.33274 + -0.10527)/2.0
 sum -  nocc_ = 0.00000000
 ef = -0.21901 sum = 1.00000 

 Iter: 33  T:      100.000  val:-0.219008  sumni 0.00000
 ne = 1.0000

 iter:34  failiter:34  energy:     -1.029243437159  total:     -0.840251576948  error:     -0.000000812436
 In Bisection function HOMO = -0.333  LUMO =  1.487

 0.57706 = (-0.33274 + 1.48686)/2.0
 sum -  nocc_ = 1.00000000
 On Iteration in Bisection 0
 a: 1.00000  b:-0.50000

 0.12216 = (-0.33274 + 0.57706)/2.0
 sum -  nocc_ = 1.00000000
 On Iteration in Bisection 1
 a: 1.00000  b:-0.50000

 -0.10529 = (-0.33274 + 0.12216)/2.0
 sum -  nocc_ = 0.25240244
 On Iteration in Bisection 2
 a: 0.25240  b:-0.50000

 -0.21902 = (-0.33274 + -0.10529)/2.0
 sum -  nocc_ = 0.00000000
 ef = -0.21902 sum = 1.00000 

 Iter: 34  T:      100.000  val:-0.219018  sumni 0.00000
 ne = 1.0000

 iter:35  failiter:35  energy:     -1.029243983045  total:     -0.840252122834  error:     -0.000000545886
 In Bisection function HOMO = -0.333  LUMO =  1.487

 0.57701 = (-0.33274 + 1.48675)/2.0
 sum -  nocc_ = 1.00000000
 On Iteration in Bisection 0
 a: 1.00000  b:-0.50000

 0.12213 = (-0.33274 + 0.57701)/2.0
 sum -  nocc_ = 1.00000000
 On Iteration in Bisection 1
 a: 1.00000  b:-0.50000

 -0.10531 = (-0.33274 + 0.12213)/2.0
 sum -  nocc_ = 0.24467523
 On Iteration in Bisection 2
 a: 0.24468  b:-0.50000

 -0.21902 = (-0.33274 + -0.10531)/2.0
 sum -  nocc_ = 0.00000000
 ef = -0.21902 sum = 1.00000 

 Iter: 35  T:      100.000  val:-0.219025  sumni 0.00000
 ne = 1.0000

 iter:36  failiter:36  energy:     -1.029244349814  total:     -0.840252489603  error:     -0.000000366769
 In Bisection function HOMO = -0.333  LUMO =  1.487

 0.57697 = (-0.33274 + 1.48669)/2.0
 sum -  nocc_ = 1.00000000
 On Iteration in Bisection 0
 a: 1.00000  b:-0.50000

 0.12211 = (-0.33274 + 0.57697)/2.0
 sum -  nocc_ = 1.00000000
 On Iteration in Bisection 1
 a: 1.00000  b:-0.50000

 -0.10531 = (-0.33274 + 0.12211)/2.0
 sum -  nocc_ = 0.23953859
 On Iteration in Bisection 2
 a: 0.23954  b:-0.50000

 -0.21903 = (-0.33274 + -0.10531)/2.0
 sum -  nocc_ = 0.00000000
 ef = -0.21903 sum = 1.00000 

 Iter: 36  T:      100.000  val:-0.219029  sumni 0.00000
 ne = 1.0000

 iter:37  failiter:37  energy:     -1.029244596228  total:     -0.840252736018  error:     -0.000000246415
 In Bisection function HOMO = -0.333  LUMO =  1.487

 0.57695 = (-0.33274 + 1.48664)/2.0
 sum -  nocc_ = 1.00000000
 On Iteration in Bisection 0
 a: 1.00000  b:-0.50000

 0.12210 = (-0.33274 + 0.57695)/2.0
 sum -  nocc_ = 1.00000000
 On Iteration in Bisection 1
 a: 1.00000  b:-0.50000

 -0.10532 = (-0.33274 + 0.12210)/2.0
 sum -  nocc_ = 0.23611307
 On Iteration in Bisection 2
 a: 0.23611  b:-0.50000

 -0.21903 = (-0.33274 + -0.10532)/2.0
 sum -  nocc_ = 0.00000000
 ef = -0.21903 sum = 1.00000 

 Iter: 37  T:      100.000  val:-0.219032  sumni 0.00000
 ne = 1.0000

 iter:38  failiter:38  energy:     -1.029244761779  total:     -0.840252901568  error:     -0.000000165551
 In Bisection function HOMO = -0.333  LUMO =  1.487

 0.57693 = (-0.33274 + 1.48661)/2.0
 sum -  nocc_ = 1.00000000
 On Iteration in Bisection 0
 a: 1.00000  b:-0.50000

 0.12209 = (-0.33274 + 0.57693)/2.0
 sum -  nocc_ = 1.00000000
 On Iteration in Bisection 1
 a: 1.00000  b:-0.50000

 -0.10532 = (-0.33274 + 0.12209)/2.0
 sum -  nocc_ = 0.23382341
 On Iteration in Bisection 2
 a: 0.23382  b:-0.50000

 -0.21903 = (-0.33274 + -0.10532)/2.0
 sum -  nocc_ = 0.00000000
 ef = -0.21903 sum = 1.00000 

 Iter: 38  T:      100.000  val:-0.219034  sumni 0.00000
 ne = 1.0000

 iter:39  failiter:39  energy:     -1.029244873001  total:     -0.840253012790  error:     -0.000000111221
 In Bisection function HOMO = -0.333  LUMO =  1.487

 0.57692 = (-0.33274 + 1.48659)/2.0
 sum -  nocc_ = 1.00000000
 On Iteration in Bisection 0
 a: 1.00000  b:-0.50000

 0.12209 = (-0.33274 + 0.57692)/2.0
 sum -  nocc_ = 1.00000000
 On Iteration in Bisection 1
 a: 1.00000  b:-0.50000

 -0.10533 = (-0.33274 + 0.12209)/2.0
 sum -  nocc_ = 0.23229051
 On Iteration in Bisection 2
 a: 0.23229  b:-0.50000

 -0.21904 = (-0.33274 + -0.10533)/2.0
 sum -  nocc_ = 0.00000000
 ef = -0.21904 sum = 1.00000 

 Iter: 39  T:      100.000  val:-0.219036  sumni 0.00000
 ne = 1.0000

 iter:40  failiter:40  energy:     -1.029244947721  total:     -0.840253087511  error:     -0.000000074721
 In Bisection function HOMO = -0.333  LUMO =  1.487

 0.57691 = (-0.33274 + 1.48657)/2.0
 sum -  nocc_ = 1.00000000
 On Iteration in Bisection 0
 a: 1.00000  b:-0.50000

 0.12209 = (-0.33274 + 0.57691)/2.0
 sum -  nocc_ = 1.00000000
 On Iteration in Bisection 1
 a: 1.00000  b:-0.50000

 -0.10533 = (-0.33274 + 0.12209)/2.0
 sum -  nocc_ = 0.23126311
 On Iteration in Bisection 2
 a: 0.23126  b:-0.50000

 -0.21904 = (-0.33274 + -0.10533)/2.0
 sum -  nocc_ = 0.00000000
 ef = -0.21904 sum = 1.00000 

 Iter: 40  T:      100.000  val:-0.219037  sumni 0.00000
 ne = 1.0000

 iter:41  failiter:41  energy:     -1.029244997920  total:     -0.840253137709  error:     -0.000000050199
 In Bisection function HOMO = -0.333  LUMO =  1.487

 0.57691 = (-0.33274 + 1.48656)/2.0
 sum -  nocc_ = 1.00000000
 On Iteration in Bisection 0
 a: 1.00000  b:-0.50000

 0.12208 = (-0.33274 + 0.57691)/2.0
 sum -  nocc_ = 1.00000000
 On Iteration in Bisection 1
 a: 1.00000  b:-0.50000

 -0.10533 = (-0.33274 + 0.12208)/2.0
 sum -  nocc_ = 0.23057400
 On Iteration in Bisection 2
 a: 0.23057  b:-0.50000

 -0.21904 = (-0.33274 + -0.10533)/2.0
 sum -  nocc_ = 0.00000000
 ef = -0.21904 sum = 1.00000 

 Iter: 41  T:      100.000  val:-0.219037  sumni 0.00000
 ne = 1.0000

 iter:42  failiter:42  energy:     -1.029245031644  total:     -0.840253171433  error:     -0.000000033724
 In Bisection function HOMO = -0.333  LUMO =  1.487

 0.57691 = (-0.33274 + 1.48656)/2.0
 sum -  nocc_ = 1.00000000
 On Iteration in Bisection 0
 a: 1.00000  b:-0.50000

 0.12208 = (-0.33274 + 0.57691)/2.0
 sum -  nocc_ = 1.00000000
 On Iteration in Bisection 1
 a: 1.00000  b:-0.50000

 -0.10533 = (-0.33274 + 0.12208)/2.0
 sum -  nocc_ = 0.23011154
 On Iteration in Bisection 2
 a: 0.23011  b:-0.50000

 -0.21904 = (-0.33274 + -0.10533)/2.0
 sum -  nocc_ = 0.00000000
 ef = -0.21904 sum = 1.00000 

 Iter: 42  T:      100.000  val:-0.219038  sumni 0.00000
 ne = 1.0000

 iter:43  failiter:43  energy:     -1.029245054300  total:     -0.840253194089  error:     -0.000000022656
 In Bisection function HOMO = -0.333  LUMO =  1.487

 0.57690 = (-0.33274 + 1.48655)/2.0
 sum -  nocc_ = 1.00000000
 On Iteration in Bisection 0
 a: 1.00000  b:-0.50000

 0.12208 = (-0.33274 + 0.57690)/2.0
 sum -  nocc_ = 1.00000000
 On Iteration in Bisection 1
 a: 1.00000  b:-0.50000

 -0.10533 = (-0.33274 + 0.12208)/2.0
 sum -  nocc_ = 0.22980108
 On Iteration in Bisection 2
 a: 0.22980  b:-0.50000

 -0.21904 = (-0.33274 + -0.10533)/2.0
 sum -  nocc_ = 0.00000000
 ef = -0.21904 sum = 1.00000 

 Iter: 43  T:      100.000  val:-0.219038  sumni 0.00000
 ne = 1.0000

 iter:44  failiter:44  energy:     -1.029245069520  total:     -0.840253209310  error:     -0.000000015221
 In Bisection function HOMO = -0.333  LUMO =  1.487

 0.57690 = (-0.33274 + 1.48655)/2.0
 sum -  nocc_ = 1.00000000
 On Iteration in Bisection 0
 a: 1.00000  b:-0.50000

 0.12208 = (-0.33274 + 0.57690)/2.0
 sum -  nocc_ = 1.00000000
 On Iteration in Bisection 1
 a: 1.00000  b:-0.50000

 -0.10533 = (-0.33274 + 0.12208)/2.0
 sum -  nocc_ = 0.22959262
 On Iteration in Bisection 2
 a: 0.22959  b:-0.50000

 -0.21904 = (-0.33274 + -0.10533)/2.0
 sum -  nocc_ = 0.00000000
 ef = -0.21904 sum = 1.00000 

 Iter: 44  T:      100.000  val:-0.219038  sumni 0.00000
 ne = 1.0000

 iter:45  failiter:45  energy:     -1.029245079746  total:     -0.840253219535  error:     -0.000000010225
 In Bisection function HOMO = -0.333  LUMO =  1.487

 0.57690 = (-0.33274 + 1.48655)/2.0
 sum -  nocc_ = 1.00000000
 On Iteration in Bisection 0
 a: 1.00000  b:-0.50000

 0.12208 = (-0.33274 + 0.57690)/2.0
 sum -  nocc_ = 1.00000000
 On Iteration in Bisection 1
 a: 1.00000  b:-0.50000

 -0.10533 = (-0.33274 + 0.12208)/2.0
 sum -  nocc_ = 0.22945262
 On Iteration in Bisection 2
 a: 0.22945  b:-0.50000

 -0.21904 = (-0.33274 + -0.10533)/2.0
 sum -  nocc_ = 0.00000000
 ef = -0.21904 sum = 1.00000 

 Iter: 45  T:      100.000  val:-0.219038  sumni 0.00000
 ne = 1.0000

 iter:46  failiter:46  energy:     -1.029245086615  total:     -0.840253226404  error:     -0.000000006869
 In Bisection function HOMO = -0.333  LUMO =  1.487

 0.57690 = (-0.33274 + 1.48655)/2.0
 sum -  nocc_ = 1.00000000
 On Iteration in Bisection 0
 a: 1.00000  b:-0.50000

 0.12208 = (-0.33274 + 0.57690)/2.0
 sum -  nocc_ = 1.00000000
 On Iteration in Bisection 1
 a: 1.00000  b:-0.50000

 -0.10533 = (-0.33274 + 0.12208)/2.0
 sum -  nocc_ = 0.22935858
 On Iteration in Bisection 2
 a: 0.22936  b:-0.50000

 -0.21904 = (-0.33274 + -0.10533)/2.0
 sum -  nocc_ = 0.00000000
 ef = -0.21904 sum = 1.00000 

 Iter: 46  T:      100.000  val:-0.219038  sumni 0.00000
 ne = 1.0000

 iter:47  failiter:47  energy:     -1.029245091230  total:     -0.840253231019  error:     -0.000000004615
 In Bisection function HOMO = -0.333  LUMO =  1.487

 0.57690 = (-0.33274 + 1.48655)/2.0
 sum -  nocc_ = 1.00000000
 On Iteration in Bisection 0
 a: 1.00000  b:-0.50000

 0.12208 = (-0.33274 + 0.57690)/2.0
 sum -  nocc_ = 1.00000000
 On Iteration in Bisection 1
 a: 1.00000  b:-0.50000

 -0.10533 = (-0.33274 + 0.12208)/2.0
 sum -  nocc_ = 0.22929542
 On Iteration in Bisection 2
 a: 0.22930  b:-0.50000

 -0.21904 = (-0.33274 + -0.10533)/2.0
 sum -  nocc_ = 0.00000000
 ef = -0.21904 sum = 1.00000 

 Iter: 47  T:      100.000  val:-0.219039  sumni 0.00000
 ne = 1.0000

 iter:48  failiter:48  energy:     -1.029245094330  total:     -0.840253234120  error:     -0.000000003100
 In Bisection function HOMO = -0.333  LUMO =  1.487

 0.57690 = (-0.33274 + 1.48654)/2.0
 sum -  nocc_ = 1.00000000
 On Iteration in Bisection 0
 a: 1.00000  b:-0.50000

 0.12208 = (-0.33274 + 0.57690)/2.0
 sum -  nocc_ = 1.00000000
 On Iteration in Bisection 1
 a: 1.00000  b:-0.50000

 -0.10533 = (-0.33274 + 0.12208)/2.0
 sum -  nocc_ = 0.22925299
 On Iteration in Bisection 2
 a: 0.22925  b:-0.50000

 -0.21904 = (-0.33274 + -0.10533)/2.0
 sum -  nocc_ = 0.00000000
 ef = -0.21904 sum = 1.00000 

 Iter: 48  T:      100.000  val:-0.219039  sumni 0.00000
 ne = 1.0000

 iter:49  failiter:49  energy:     -1.029245096413  total:     -0.840253236202  error:     -0.000000002083
 In Bisection function HOMO = -0.333  LUMO =  1.487

 0.57690 = (-0.33274 + 1.48654)/2.0
 sum -  nocc_ = 1.00000000
 On Iteration in Bisection 0
 a: 1.00000  b:-0.50000

 0.12208 = (-0.33274 + 0.57690)/2.0
 sum -  nocc_ = 1.00000000
 On Iteration in Bisection 1
 a: 1.00000  b:-0.50000

 -0.10533 = (-0.33274 + 0.12208)/2.0
 sum -  nocc_ = 0.22922449
 On Iteration in Bisection 2
 a: 0.22922  b:-0.50000

 -0.21904 = (-0.33274 + -0.10533)/2.0
 sum -  nocc_ = 0.00000000
 ef = -0.21904 sum = 1.00000 

 Iter: 49  T:      100.000  val:-0.219039  sumni 0.00000
 ne = 1.0000

 iter:50  failiter:50  energy:     -1.029245097812  total:     -0.840253237602  error:     -0.000000001399
 In Bisection function HOMO = -0.333  LUMO =  1.487

 0.57690 = (-0.33274 + 1.48654)/2.0
 sum -  nocc_ = 1.00000000
 On Iteration in Bisection 0
 a: 1.00000  b:-0.50000

 0.12208 = (-0.33274 + 0.57690)/2.0
 sum -  nocc_ = 1.00000000
 On Iteration in Bisection 1
 a: 1.00000  b:-0.50000

 -0.10533 = (-0.33274 + 0.12208)/2.0
 sum -  nocc_ = 0.22920534
 On Iteration in Bisection 2
 a: 0.22921  b:-0.50000

 -0.21904 = (-0.33274 + -0.10533)/2.0
 sum -  nocc_ = 0.00000000
 ef = -0.21904 sum = 1.00000 

 Iter: 50  T:      100.000  val:-0.219039  sumni 0.00000
 ne = 1.0000

 iter:51  failiter:51  energy:     -1.029245098752  total:     -0.840253238542  error:     -0.000000000940
 In Bisection function HOMO = -0.333  LUMO =  1.487

 0.57690 = (-0.33274 + 1.48654)/2.0
 sum -  nocc_ = 1.00000000
 On Iteration in Bisection 0
 a: 1.00000  b:-0.50000

 0.12208 = (-0.33274 + 0.57690)/2.0
 sum -  nocc_ = 1.00000000
 On Iteration in Bisection 1
 a: 1.00000  b:-0.50000

 -0.10533 = (-0.33274 + 0.12208)/2.0
 sum -  nocc_ = 0.22919248
 On Iteration in Bisection 2
 a: 0.22919  b:-0.50000

 -0.21904 = (-0.33274 + -0.10533)/2.0
 sum -  nocc_ = 0.00000000
 ef = -0.21904 sum = 1.00000 

 Iter: 51  T:      100.000  val:-0.219039  sumni 0.00000
 ne = 1.0000

 iter:52  failiter:52  energy:     -1.029245099384  total:     -0.840253239173  error:     -0.000000000632
 In Bisection function HOMO = -0.333  LUMO =  1.487

 0.57690 = (-0.33274 + 1.48654)/2.0
 sum -  nocc_ = 1.00000000
 On Iteration in Bisection 0
 a: 1.00000  b:-0.50000

 0.12208 = (-0.33274 + 0.57690)/2.0
 sum -  nocc_ = 1.00000000
 On Iteration in Bisection 1
 a: 1.00000  b:-0.50000

 -0.10533 = (-0.33274 + 0.12208)/2.0
 sum -  nocc_ = 0.22918384
 On Iteration in Bisection 2
 a: 0.22918  b:-0.50000

 -0.21904 = (-0.33274 + -0.10533)/2.0
 sum -  nocc_ = 0.00000000
 ef = -0.21904 sum = 1.00000 

 Iter: 52  T:      100.000  val:-0.219039  sumni 0.00000
 ne = 1.0000

 iter:53  failiter:53  energy:     -1.029245099808  total:     -0.840253239598  error:     -0.000000000424
 In Bisection function HOMO = -0.333  LUMO =  1.487

 0.57690 = (-0.33274 + 1.48654)/2.0
 sum -  nocc_ = 1.00000000
 On Iteration in Bisection 0
 a: 1.00000  b:-0.50000

 0.12208 = (-0.33274 + 0.57690)/2.0
 sum -  nocc_ = 1.00000000
 On Iteration in Bisection 1
 a: 1.00000  b:-0.50000

 -0.10533 = (-0.33274 + 0.12208)/2.0
 sum -  nocc_ = 0.22917803
 On Iteration in Bisection 2
 a: 0.22918  b:-0.50000

 -0.21904 = (-0.33274 + -0.10533)/2.0
 sum -  nocc_ = 0.00000000
 ef = -0.21904 sum = 1.00000 

 Iter: 53  T:      100.000  val:-0.219039  sumni 0.00000
 ne = 1.0000

 iter:54  failiter:54  energy:     -1.029245100093  total:     -0.840253239883  error:     -0.000000000285
 In Bisection function HOMO = -0.333  LUMO =  1.487

 0.57690 = (-0.33274 + 1.48654)/2.0
 sum -  nocc_ = 1.00000000
 On Iteration in Bisection 0
 a: 1.00000  b:-0.50000

 0.12208 = (-0.33274 + 0.57690)/2.0
 sum -  nocc_ = 1.00000000
 On Iteration in Bisection 1
 a: 1.00000  b:-0.50000

 -0.10533 = (-0.33274 + 0.12208)/2.0
 sum -  nocc_ = 0.22917413
 On Iteration in Bisection 2
 a: 0.22917  b:-0.50000

 -0.21904 = (-0.33274 + -0.10533)/2.0
 sum -  nocc_ = 0.00000000
 ef = -0.21904 sum = 1.00000 

 Iter: 54  T:      100.000  val:-0.219039  sumni 0.00000
 ne = 1.0000

 iter:55  failiter:55  energy:     -1.029245100285  total:     -0.840253240074  error:     -0.000000000191
 In Bisection function HOMO = -0.333  LUMO =  1.487

 0.57690 = (-0.33274 + 1.48654)/2.0
 sum -  nocc_ = 1.00000000
 On Iteration in Bisection 0
 a: 1.00000  b:-0.50000

 0.12208 = (-0.33274 + 0.57690)/2.0
 sum -  nocc_ = 1.00000000
 On Iteration in Bisection 1
 a: 1.00000  b:-0.50000

 -0.10533 = (-0.33274 + 0.12208)/2.0
 sum -  nocc_ = 0.22917151
 On Iteration in Bisection 2
 a: 0.22917  b:-0.50000

 -0.21904 = (-0.33274 + -0.10533)/2.0
 sum -  nocc_ = 0.00000000
 ef = -0.21904 sum = 1.00000 

 Iter: 55  T:      100.000  val:-0.219039  sumni 0.00000
 ne = 1.0000

 iter:56  failiter:56  energy:     -1.029245100413  total:     -0.840253240203  error:     -0.000000000129
 In Bisection function HOMO = -0.333  LUMO =  1.487

 0.57690 = (-0.33274 + 1.48654)/2.0
 sum -  nocc_ = 1.00000000
 On Iteration in Bisection 0
 a: 1.00000  b:-0.50000

 0.12208 = (-0.33274 + 0.57690)/2.0
 sum -  nocc_ = 1.00000000
 On Iteration in Bisection 1
 a: 1.00000  b:-0.50000

 -0.10533 = (-0.33274 + 0.12208)/2.0
 sum -  nocc_ = 0.22916975
 On Iteration in Bisection 2
 a: 0.22917  b:-0.50000

 -0.21904 = (-0.33274 + -0.10533)/2.0
 sum -  nocc_ = 0.00000000
 ef = -0.21904 sum = 1.00000 

 Iter: 56  T:      100.000  val:-0.219039  sumni 0.00000
 ne = 1.0000

 iter:57  failiter:57  energy:     -1.029245100500  total:     -0.840253240289  error:     -0.000000000086
 In Bisection function HOMO = -0.333  LUMO =  1.487

 0.57690 = (-0.33274 + 1.48654)/2.0
 sum -  nocc_ = 1.00000000
 On Iteration in Bisection 0
 a: 1.00000  b:-0.50000

 0.12208 = (-0.33274 + 0.57690)/2.0
 sum -  nocc_ = 1.00000000
 On Iteration in Bisection 1
 a: 1.00000  b:-0.50000

 -0.10533 = (-0.33274 + 0.12208)/2.0
 sum -  nocc_ = 0.22916857
 On Iteration in Bisection 2
 a: 0.22917  b:-0.50000

 -0.21904 = (-0.33274 + -0.10533)/2.0
 sum -  nocc_ = 0.00000000
 ef = -0.21904 sum = 1.00000 

 Iter: 57  T:      100.000  val:-0.219039  sumni 0.00000
 ne = 1.0000

 iter:58  failiter:58  energy:     -1.029245100558  total:     -0.840253240347  error:     -0.000000000058
 In Bisection function HOMO = -0.333  LUMO =  1.487

 0.57690 = (-0.33274 + 1.48654)/2.0
 sum -  nocc_ = 1.00000000
 On Iteration in Bisection 0
 a: 1.00000  b:-0.50000

 0.12208 = (-0.33274 + 0.57690)/2.0
 sum -  nocc_ = 1.00000000
 On Iteration in Bisection 1
 a: 1.00000  b:-0.50000

 -0.10533 = (-0.33274 + 0.12208)/2.0
 sum -  nocc_ = 0.22916778
 On Iteration in Bisection 2
 a: 0.22917  b:-0.50000

 -0.21904 = (-0.33274 + -0.10533)/2.0
 sum -  nocc_ = 0.00000000
 ef = -0.21904 sum = 1.00000 

 Iter: 58  T:      100.000  val:-0.219039  sumni 0.00000
 ne = 1.0000

 iter:59  failiter:59  energy:     -1.029245100597  total:     -0.840253240386  error:     -0.000000000039
 In Bisection function HOMO = -0.333  LUMO =  1.487

 0.57690 = (-0.33274 + 1.48654)/2.0
 sum -  nocc_ = 1.00000000
 On Iteration in Bisection 0
 a: 1.00000  b:-0.50000

 0.12208 = (-0.33274 + 0.57690)/2.0
 sum -  nocc_ = 1.00000000
 On Iteration in Bisection 1
 a: 1.00000  b:-0.50000

 -0.10533 = (-0.33274 + 0.12208)/2.0
 sum -  nocc_ = 0.22916724
 On Iteration in Bisection 2
 a: 0.22917  b:-0.50000

 -0.21904 = (-0.33274 + -0.10533)/2.0
 sum -  nocc_ = 0.00000000
 ef = -0.21904 sum = 1.00000 

 Iter: 59  T:      100.000  val:-0.219039  sumni 0.00000
 ne = 1.0000

 iter:60  failiter:60  energy:     -1.029245100623  total:     -0.840253240412  error:     -0.000000000026
 In Bisection function HOMO = -0.333  LUMO =  1.487

 0.57690 = (-0.33274 + 1.48654)/2.0
 sum -  nocc_ = 1.00000000
 On Iteration in Bisection 0
 a: 1.00000  b:-0.50000

 0.12208 = (-0.33274 + 0.57690)/2.0
 sum -  nocc_ = 1.00000000
 On Iteration in Bisection 1
 a: 1.00000  b:-0.50000

 -0.10533 = (-0.33274 + 0.12208)/2.0
 sum -  nocc_ = 0.22916689
 On Iteration in Bisection 2
 a: 0.22917  b:-0.50000

 -0.21904 = (-0.33274 + -0.10533)/2.0
 sum -  nocc_ = 0.00000000
 ef = -0.21904 sum = 1.00000 

 Iter: 60  T:      100.000  val:-0.219039  sumni 0.00000
 ne = 1.0000

 iter:61  failiter:61  energy:     -1.029245100641  total:     -0.840253240430  error:     -0.000000000018
 In Bisection function HOMO = -0.333  LUMO =  1.487

 0.57690 = (-0.33274 + 1.48654)/2.0
 sum -  nocc_ = 1.00000000
 On Iteration in Bisection 0
 a: 1.00000  b:-0.50000

 0.12208 = (-0.33274 + 0.57690)/2.0
 sum -  nocc_ = 1.00000000
 On Iteration in Bisection 1
 a: 1.00000  b:-0.50000

 -0.10533 = (-0.33274 + 0.12208)/2.0
 sum -  nocc_ = 0.22916664
 On Iteration in Bisection 2
 a: 0.22917  b:-0.50000

 -0.21904 = (-0.33274 + -0.10533)/2.0
 sum -  nocc_ = 0.00000000
 ef = -0.21904 sum = 1.00000 

 Iter: 61  T:      100.000  val:-0.219039  sumni 0.00000
 ne = 1.0000

 iter:62  failiter:62  energy:     -1.029245100652  total:     -0.840253240442  error:     -0.000000000012
 In Bisection function HOMO = -0.333  LUMO =  1.487

 0.57690 = (-0.33274 + 1.48654)/2.0
 sum -  nocc_ = 1.00000000
 On Iteration in Bisection 0
 a: 1.00000  b:-0.50000

 0.12208 = (-0.33274 + 0.57690)/2.0
 sum -  nocc_ = 1.00000000
 On Iteration in Bisection 1
 a: 1.00000  b:-0.50000

 -0.10533 = (-0.33274 + 0.12208)/2.0
 sum -  nocc_ = 0.22916648
 On Iteration in Bisection 2
 a: 0.22917  b:-0.50000

 -0.21904 = (-0.33274 + -0.10533)/2.0
 sum -  nocc_ = 0.00000000
 ef = -0.21904 sum = 1.00000 

 Iter: 62  T:      100.000  val:-0.219039  sumni 0.00000
 ne = 1.0000

 iter:63  failiter:63  energy:     -1.029245100660  total:     -0.840253240450  error:     -0.000000000008
 In Bisection function HOMO = -0.333  LUMO =  1.487

 0.57690 = (-0.33274 + 1.48654)/2.0
 sum -  nocc_ = 1.00000000
 On Iteration in Bisection 0
 a: 1.00000  b:-0.50000

 0.12208 = (-0.33274 + 0.57690)/2.0
 sum -  nocc_ = 1.00000000
 On Iteration in Bisection 1
 a: 1.00000  b:-0.50000

 -0.10533 = (-0.33274 + 0.12208)/2.0
 sum -  nocc_ = 0.22916637
 On Iteration in Bisection 2
 a: 0.22917  b:-0.50000

 -0.21904 = (-0.33274 + -0.10533)/2.0
 sum -  nocc_ = 0.00000000
 ef = -0.21904 sum = 1.00000 

 Iter: 63  T:      100.000  val:-0.219039  sumni 0.00000
 ne = 1.0000

 iter:64  failiter:64  energy:     -1.029245100666  total:     -0.840253240455  error:     -0.000000000005
 In Bisection function HOMO = -0.333  LUMO =  1.487

 0.57690 = (-0.33274 + 1.48654)/2.0
 sum -  nocc_ = 1.00000000
 On Iteration in Bisection 0
 a: 1.00000  b:-0.50000

 0.12208 = (-0.33274 + 0.57690)/2.0
 sum -  nocc_ = 1.00000000
 On Iteration in Bisection 1
 a: 1.00000  b:-0.50000

 -0.10533 = (-0.33274 + 0.12208)/2.0
 sum -  nocc_ = 0.22916630
 On Iteration in Bisection 2
 a: 0.22917  b:-0.50000

 -0.21904 = (-0.33274 + -0.10533)/2.0
 sum -  nocc_ = 0.00000000
 ef = -0.21904 sum = 1.00000 

 Iter: 64  T:      100.000  val:-0.219039  sumni 0.00000
 ne = 1.0000

 iter:65  failiter:65  energy:     -1.029245100669  total:     -0.840253240459  error:     -0.000000000004
 In Bisection function HOMO = -0.333  LUMO =  1.487

 0.57690 = (-0.33274 + 1.48654)/2.0
 sum -  nocc_ = 1.00000000
 On Iteration in Bisection 0
 a: 1.00000  b:-0.50000

 0.12208 = (-0.33274 + 0.57690)/2.0
 sum -  nocc_ = 1.00000000
 On Iteration in Bisection 1
 a: 1.00000  b:-0.50000

 -0.10533 = (-0.33274 + 0.12208)/2.0
 sum -  nocc_ = 0.22916625
 On Iteration in Bisection 2
 a: 0.22917  b:-0.50000

 -0.21904 = (-0.33274 + -0.10533)/2.0
 sum -  nocc_ = 0.00000000
 ef = -0.21904 sum = 1.00000 

 Iter: 65  T:      100.000  val:-0.219039  sumni 0.00000
 ne = 1.0000

 iter:66  failiter:66  energy:     -1.029245100672  total:     -0.840253240461  error:     -0.000000000002
 In Bisection function HOMO = -0.333  LUMO =  1.487

 0.57690 = (-0.33274 + 1.48654)/2.0
 sum -  nocc_ = 1.00000000
 On Iteration in Bisection 0
 a: 1.00000  b:-0.50000

 0.12208 = (-0.33274 + 0.57690)/2.0
 sum -  nocc_ = 1.00000000
 On Iteration in Bisection 1
 a: 1.00000  b:-0.50000

 -0.10533 = (-0.33274 + 0.12208)/2.0
 sum -  nocc_ = 0.22916622
 On Iteration in Bisection 2
 a: 0.22917  b:-0.50000

 -0.21904 = (-0.33274 + -0.10533)/2.0
 sum -  nocc_ = 0.00000000
 ef = -0.21904 sum = 1.00000 

 Iter: 66  T:      100.000  val:-0.219039  sumni 0.00000
 ne = 1.0000

 iter:67  failiter:67  energy:     -1.029245100673  total:     -0.840253240463  error:     -0.000000000002
 In Bisection function HOMO = -0.333  LUMO =  1.487

 0.57690 = (-0.33274 + 1.48654)/2.0
 sum -  nocc_ = 1.00000000
 On Iteration in Bisection 0
 a: 1.00000  b:-0.50000

 0.12208 = (-0.33274 + 0.57690)/2.0
 sum -  nocc_ = 1.00000000
 On Iteration in Bisection 1
 a: 1.00000  b:-0.50000

 -0.10533 = (-0.33274 + 0.12208)/2.0
 sum -  nocc_ = 0.22916620
 On Iteration in Bisection 2
 a: 0.22917  b:-0.50000

 -0.21904 = (-0.33274 + -0.10533)/2.0
 sum -  nocc_ = 0.00000000
 ef = -0.21904 sum = 1.00000 

 Iter: 67  T:      100.000  val:-0.219039  sumni 0.00000
 ne = 1.0000

 iter:68  failiter:68  energy:     -1.029245100674  total:     -0.840253240464  error:     -0.000000000001
 In Bisection function HOMO = -0.333  LUMO =  1.487

 0.57690 = (-0.33274 + 1.48654)/2.0
 sum -  nocc_ = 1.00000000
 On Iteration in Bisection 0
 a: 1.00000  b:-0.50000

 0.12208 = (-0.33274 + 0.57690)/2.0
 sum -  nocc_ = 1.00000000
 On Iteration in Bisection 1
 a: 1.00000  b:-0.50000

 -0.10533 = (-0.33274 + 0.12208)/2.0
 sum -  nocc_ = 0.22916618
 On Iteration in Bisection 2
 a: 0.22917  b:-0.50000

 -0.21904 = (-0.33274 + -0.10533)/2.0
 sum -  nocc_ = 0.00000000
 ef = -0.21904 sum = 1.00000 

 Iter: 68  T:      100.000  val:-0.219039  sumni 0.00000
 ne = 1.0000

 iter:69  failiter:69  energy:     -1.029245100675  total:     -0.840253240464  error:     -0.000000000001
 FTHFEnergy =    -0.840253
 FD_dis[0] = 1.00000000 with -0.332744 eig value
 FD_dis[1] = 0.00000000 with -0.104949 eig value
 FD_dis[2] = 0.00000000 with 0.603345 eig value
 FD_dis[3] = 0.00000000 with 0.676563 eig value
 FD_dis[4] = 0.00000000 with 1.462233 eig value
 FD_dis[5] = 0.00000000 with 1.462233 eig value
 FD_dis[6] = 0.00000000 with 1.463956 eig value
 FD_dis[7] = 0.00000000 with 1.465713 eig value
 FD_dis[8] = 0.00000000 with 1.465713 eig value
 FD_dis[9] = 0.00000000 with 1.486543 eig value
*** PSI4 exiting successfully. Buy a developer a beer!
