    -----------------------------------------------------------------------
          PSI4: An Open-Source Ab Initio Electronic Structure Package
                              PSI 4.0 Driver

               Git: Rev {master} 556e8139d3cfa1f96ccffe2cdf22cc56a185d2b2

    J. M. Turney, A. C. Simmonett, R. M. Parrish, E. G. Hohenstein,
    F. A. Evangelista, J. T. Fermann, B. J. Mintz, L. A. Burns, J. J. Wilke,
    M. L. Abrams, N. J. Russ, M. L. Leininger, C. L. Janssen, E. T. Seidl,
    W. D. Allen, H. F. Schaefer, R. A. King, E. F. Valeev, C. D. Sherrill,
    and T. D. Crawford, WIREs Comput. Mol. Sci. 2, 556-565 (2012)
    (doi: 10.1002/wcms.93)

                         Additional Contributions by
    A. E. DePrince, M. Saitow, U. Bozkaya, A. Yu. Sokolov
    -----------------------------------------------------------------------

    Process ID:  11939
    PSI4DATADIR: /Users/kevinhannon/Programs/psi4cmake/psi4/lib
    Memory level set to 256.000 MB

  ==> Input File <==

--------------------------------------------------------------------------

# PYTHONPATH must include directory above plugin directory.
#     Define either externally or here, then import plugin.
sys.path.insert(0, '/Users/kevinhannon/Programs/Quantum_Programs/Quantum-Programs/GS/')
import scf

molecule {
0 1
H
H 1 1.40000
symmetry c1
units angstrom
}


set {
  basis cc-pvdz
  reference rhf
  scf_type  pk
}

set scf {
  DO_FTHF true
  MAX_ITER 130
  MAX_TEMP 100
  TEMP_INCREMENT 0
  bisect  true
  bisect_iter  40
}
energy('rhf')

energy('scf')


--------------------------------------------------------------------------

*** tstart() called on Kevins-MacBook-Pro.local
*** at Fri Apr 10 18:02:07 2015

/Users/kevinhannon/Programs/Quantum_Programs/Quantum-Programs/GS/scf/scf.so loaded.

*** tstart() called on Kevins-MacBook-Pro.local
*** at Fri Apr 10 18:02:07 2015


         ---------------------------------------------------------
                                   SCF
            by Justin Turney, Rob Parrish, and Andy Simmonett
                              RHF Reference
                        1 Threads,    256 MiB Core
         ---------------------------------------------------------

  ==> Geometry <==

    Molecular point group: c1
    Full point group: D_inf_h

    Geometry (in Angstrom), charge = 0, multiplicity = 1:

       Center              X                  Y                   Z       
    ------------   -----------------  -----------------  -----------------
           H          0.000000000000     0.000000000000    -0.700000000000
           H          0.000000000000     0.000000000000     0.700000000000

  Running in c1 symmetry.

  Rotational constants: A = ************  B =     17.06810  C =     17.06810 [cm^-1]
  Rotational constants: A = ************  B = 511688.88034  C = 511688.88034 [MHz]
  Nuclear repulsion =    0.377983720421429

  Charge       = 0
  Multiplicity = 1
  Electrons    = 2
  Nalpha       = 1
  Nbeta        = 1

  ==> Algorithm <==

  SCF Algorithm Type is PK.
  DIIS enabled.
  MOM disabled.
  Fractional occupation disabled.
  Guess Type is CORE.
  Energy threshold   = 1.00e-06
  Density threshold  = 1.00e-06
  Integral threshold = 0.00e+00

  ==> Primary Basis <==

  Basis Set: CC-PVDZ
    Number of shells: 6
    Number of basis function: 10
    Number of Cartesian functions: 10
    Spherical Harmonics?: true
    Max angular momentum: 1

  ==> Pre-Iterations <==

   -------------------------------------------------------
    Irrep   Nso     Nmo     Nalpha   Nbeta   Ndocc  Nsocc
   -------------------------------------------------------
     A         10      10       0       0       0       0
   -------------------------------------------------------
    Total      10      10       1       1       1       0
   -------------------------------------------------------

  Starting with a DF guess...

 OEINTS: Overlap, kinetic, potential, dipole, and quadrupole integrals
         stored in file 35.

  ==> Integral Setup <==

  ==> DFJK: Density-Fitted J/K Matrices <==

    J tasked:                  Yes
    K tasked:                  Yes
    wK tasked:                  No
    OpenMP threads:              1
    Integrals threads:           1
    Memory (MB):               183
    Algorithm:                Core
    Integral Cache:           NONE
    Schwarz Cutoff:          1E-12
    Fitting Condition:       1E-12

   => Auxiliary Basis Set <=

  Basis Set: 
    Number of shells: 18
    Number of basis function: 46
    Number of Cartesian functions: 50
    Spherical Harmonics?: true
    Max angular momentum: 2

  Minimum eigenvalue in the overlap matrix is 1.6334452515E-01.
  Using Symmetric Orthogonalization.
  SCF Guess: Core (One-Electron) Hamiltonian.

  ==> Iterations <==

                           Total Energy        Delta E     RMS |[F,P]|

   @DF-RHF iter   1:    -0.98496173337235   -9.84962e-01   1.81797e-02 
   @DF-RHF iter   2:    -1.02009871698228   -3.51370e-02   3.14972e-03 DIIS
   @DF-RHF iter   3:    -1.02120085553682   -1.10214e-03   1.18411e-04 DIIS
   @DF-RHF iter   4:    -1.02120192770734   -1.07217e-06   3.08660e-06 DIIS
   @DF-RHF iter   5:    -1.02120192877904   -1.07169e-09   1.13835e-09 DIIS

  DF guess converged.

  ==> Integral Setup <==

 MINTS: Wrapper to libmints.
   by Justin Turney

   Calculation information:
      Number of atoms:                   2
      Number of AO shells:               6
      Number of SO shells:               6
      Number of primitives:             10
      Number of atomic orbitals:        10
      Number of basis functions:        10

      Number of irreps:                  1
      Integral cutoff                 0.00e+00
      Number of functions per irrep: [  10 ]

 OEINTS: Overlap, kinetic, potential, dipole, and quadrupole integrals
         stored in file 35.

      Computing two-electron integrals...done
      Computed 512 non-zero two-electron integrals.
        Stored in file 33.

	Batch   1 pq = [       0,      55] index = [             0,1540]
  ==> DiskJK: Disk-Based J/K Matrices <==

    J tasked:                  Yes
    K tasked:                  Yes
    wK tasked:                  No
    Memory (MB):               183
    Schwarz Cutoff:          1E-12

   @RHF iter   6:    -1.02119683592857    5.09285e-06   2.05152e-06 DIIS
   @RHF iter   7:    -1.02119683620405   -2.75477e-10   3.20864e-07 DIIS

  ==> Post-Iterations <==

    Orbital Energies (a.u.)
    -----------------------

    Doubly Occupied:                                                      

       1A     -0.453024  

    Virtual:                                                              

       2A      0.059248     3A      0.624577     4A      0.689021  
       5A      1.321394     6A      1.360057     7A      1.360057  
       8A      1.656918     9A      1.656918    10A      2.238097  

    Final Occupation by Irrep:
              A 
    DOCC [     1 ]

  Energy converged.

  @RHF Final Energy:    -1.02119683620405

   => Energetics <=

    Nuclear Repulsion Energy =              0.3779837204214286
    One-Electron Energy =                  -1.8923126279105973
    Two-Electron Energy =                   0.4931320712851184
    DFT Exchange-Correlation Energy =       0.0000000000000000
    Empirical Dispersion Energy =           0.0000000000000000
    PCM Polarization Energy =               0.0000000000000000
    EFP Energy =                            0.0000000000000000
    Total Energy =                         -1.0211968362040502

    Alert: EFP and PCM quantities not currently incorporated into SCF psivars.

Properties will be evaluated at   0.000000,   0.000000,   0.000000 Bohr
  ==> Properties <==


Properties computed using the SCF density matrix

  Nuclear Dipole Moment: (a.u.)
     X:     0.0000      Y:     0.0000      Z:     0.0000

  Electronic Dipole Moment: (a.u.)
     X:    -0.0000      Y:     0.0000      Z:    -0.0000

  Dipole Moment: (a.u.)
     X:    -0.0000      Y:     0.0000      Z:    -0.0000     Total:     0.0000

  Dipole Moment: (Debye)
     X:    -0.0000      Y:     0.0000      Z:    -0.0000     Total:     0.0000


  Saving occupied orbitals to File 180.

*** tstop() called on Kevins-MacBook-Pro.local at Fri Apr 10 18:02:07 2015
Module time:
	user time   =       0.20 seconds =       0.00 minutes
	system time =       0.01 seconds =       0.00 minutes
	total time  =          0 seconds =       0.00 minutes
Total time:
	user time   =       0.21 seconds =       0.00 minutes
	system time =       0.01 seconds =       0.00 minutes
	total time  =          0 seconds =       0.00 minutes

*** tstart() called on Kevins-MacBook-Pro.local
*** at Fri Apr 10 18:02:07 2015


         ---------------------------------------------------------
                                   SCF
            by Justin Turney, Rob Parrish, and Andy Simmonett
                              RHF Reference
                        1 Threads,    256 MiB Core
         ---------------------------------------------------------

  ==> Geometry <==

    Molecular point group: c1
    Full point group: D_inf_h

    Geometry (in Angstrom), charge = 0, multiplicity = 1:

       Center              X                  Y                   Z       
    ------------   -----------------  -----------------  -----------------
           H          0.000000000000     0.000000000000    -0.700000000000
           H          0.000000000000     0.000000000000     0.700000000000

  Running in c1 symmetry.

  Rotational constants: A = ************  B =     17.06810  C =     17.06810 [cm^-1]
  Rotational constants: A = ************  B = 511688.88034  C = 511688.88034 [MHz]
  Nuclear repulsion =    0.377983720421429

  Charge       = 0
  Multiplicity = 1
  Electrons    = 2
  Nalpha       = 1
  Nbeta        = 1

  ==> Algorithm <==

  SCF Algorithm Type is PK.
  DIIS enabled.
  MOM disabled.
  Fractional occupation disabled.
  Guess Type is CORE.
  Energy threshold   = 1.00e-08
  Density threshold  = 1.00e-08
  Integral threshold = 0.00e+00

  ==> Primary Basis <==

  Basis Set: CC-PVDZ
    Number of shells: 6
    Number of basis function: 10
    Number of Cartesian functions: 10
    Spherical Harmonics?: true
    Max angular momentum: 1

  ==> Pre-Iterations <==

   -------------------------------------------------------
    Irrep   Nso     Nmo     Nalpha   Nbeta   Ndocc  Nsocc
   -------------------------------------------------------
     A         10      10       0       0       0       0
   -------------------------------------------------------
    Total      10      10       1       1       1       0
   -------------------------------------------------------

  Starting with a DF guess...

 OEINTS: Overlap, kinetic, potential, dipole, and quadrupole integrals
         stored in file 35.

  ==> Integral Setup <==

  ==> DFJK: Density-Fitted J/K Matrices <==

    J tasked:                  Yes
    K tasked:                  Yes
    wK tasked:                  No
    OpenMP threads:              1
    Integrals threads:           1
    Memory (MB):               183
    Algorithm:                Core
    Integral Cache:           NONE
    Schwarz Cutoff:          1E-12
    Fitting Condition:       1E-12

   => Auxiliary Basis Set <=

  Basis Set: 
    Number of shells: 18
    Number of basis function: 46
    Number of Cartesian functions: 50
    Spherical Harmonics?: true
    Max angular momentum: 2

  Minimum eigenvalue in the overlap matrix is 1.6334452515E-01.
  Using Symmetric Orthogonalization.
  SCF Guess: Core (One-Electron) Hamiltonian.

  ==> Iterations <==

                           Total Energy        Delta E     RMS |[F,P]|

   @DF-RHF iter   1:    -0.98496173337235   -9.84962e-01   1.81797e-02 
   @DF-RHF iter   2:    -1.02009871698228   -3.51370e-02   3.14972e-03 DIIS
   @DF-RHF iter   3:    -1.02120085553681   -1.10214e-03   1.18411e-04 DIIS
   @DF-RHF iter   4:    -1.02120192770734   -1.07217e-06   3.08660e-06 DIIS
   @DF-RHF iter   5:    -1.02120192877904   -1.07169e-09   1.13835e-09 DIIS

  DF guess converged.

  ==> Integral Setup <==

 MINTS: Wrapper to libmints.
   by Justin Turney

   Calculation information:
      Number of atoms:                   2
      Number of AO shells:               6
      Number of SO shells:               6
      Number of primitives:             10
      Number of atomic orbitals:        10
      Number of basis functions:        10

      Number of irreps:                  1
      Integral cutoff                 0.00e+00
      Number of functions per irrep: [  10 ]

 OEINTS: Overlap, kinetic, potential, dipole, and quadrupole integrals
         stored in file 35.

      Computing two-electron integrals...done
      Computed 512 non-zero two-electron integrals.
        Stored in file 33.

	Batch   1 pq = [       0,      55] index = [             0,1540]
  ==> DiskJK: Disk-Based J/K Matrices <==

    J tasked:                  Yes
    K tasked:                  Yes
    wK tasked:                  No
    Memory (MB):               183
    Schwarz Cutoff:          1E-12

   @RHF iter   6:    -1.02119683592857    5.09285e-06   2.05152e-06 DIIS
   @RHF iter   7:    -1.02119683620405   -2.75479e-10   3.20864e-07 DIIS
   @RHF iter   8:    -1.02119683621095   -6.90337e-12   6.41840e-09 DIIS

  ==> Post-Iterations <==

    Orbital Energies (a.u.)
    -----------------------

    Doubly Occupied:                                                      

       1A     -0.453024  

    Virtual:                                                              

       2A      0.059248     3A      0.624577     4A      0.689021  
       5A      1.321394     6A      1.360058     7A      1.360058  
       8A      1.656918     9A      1.656918    10A      2.238098  

    Final Occupation by Irrep:
              A 
    DOCC [     1 ]

  Energy converged.

  @RHF Final Energy:    -1.02119683621095

   => Energetics <=

    Nuclear Repulsion Energy =              0.3779837204214286
    One-Electron Energy =                  -1.8923124121981476
    Two-Electron Energy =                   0.4931318555657653
    DFT Exchange-Correlation Energy =       0.0000000000000000
    Empirical Dispersion Energy =           0.0000000000000000
    PCM Polarization Energy =               0.0000000000000000
    EFP Energy =                            0.0000000000000000
    Total Energy =                         -1.0211968362109536

    Alert: EFP and PCM quantities not currently incorporated into SCF psivars.

Properties will be evaluated at   0.000000,   0.000000,   0.000000 Bohr
  ==> Properties <==


Properties computed using the SCF density matrix

  Nuclear Dipole Moment: (a.u.)
     X:     0.0000      Y:     0.0000      Z:     0.0000

  Electronic Dipole Moment: (a.u.)
     X:    -0.0000      Y:    -0.0000      Z:    -0.0000

  Dipole Moment: (a.u.)
     X:    -0.0000      Y:    -0.0000      Z:    -0.0000     Total:     0.0000

  Dipole Moment: (Debye)
     X:    -0.0000      Y:    -0.0000      Z:    -0.0000     Total:     0.0000


  Saving occupied orbitals to File 180.

*** tstop() called on Kevins-MacBook-Pro.local at Fri Apr 10 18:02:08 2015
Module time:
	user time   =       0.18 seconds =       0.00 minutes
	system time =       0.01 seconds =       0.00 minutes
	total time  =          1 seconds =       0.02 minutes
Total time:
	user time   =       0.40 seconds =       0.01 minutes
	system time =       0.02 seconds =       0.00 minutes
	total time  =          1 seconds =       0.02 minutes
Reading options from the SCF block
Calling plugin scf.so.
    Molecular point group: c1
    Full point group: D_inf_h

    Geometry (in Angstrom), charge = 0, multiplicity = 1:

       Center              X                  Y                   Z       
    ------------   -----------------  -----------------  -----------------
           H          0.000000000000     0.000000000000    -0.700000000000
           H          0.000000000000     0.000000000000     0.700000000000


    Nuclear repulsion energy:       0.37798372

  ## Overlap (Symmetry 0) ##
  Irrep: 1 Size: 10 x 10

                 1                   2                   3                   4                   5

    1     1.00000000000000     0.68486025149275     0.00000000000000     0.00000000000000     0.00000000000000
    2     0.68486025149275     1.00000000000000     0.00000000000000     0.00000000000000     0.00000000000000
    3     0.00000000000000     0.00000000000000     1.00000000000000     0.00000000000000     0.00000000000000
    4     0.00000000000000     0.00000000000000     0.00000000000000     1.00000000000000     0.00000000000000
    5     0.00000000000000     0.00000000000000     0.00000000000000     0.00000000000000     1.00000000000000
    6     0.16099442067124     0.34535594486289     0.20927562250965     0.00000000000000     0.00000000000000
    7     0.34535594486289     0.65249192565295     0.18336701086012     0.00000000000000     0.00000000000000
    8    -0.20927562250965    -0.18336701086012    -0.32107928882214     0.00000000000000     0.00000000000000
    9     0.00000000000000     0.00000000000000     0.00000000000000     0.07853264598379     0.00000000000000
   10     0.00000000000000     0.00000000000000     0.00000000000000     0.00000000000000     0.07853264598379

                 6                   7                   8                   9                  10

    1     0.16099442067124     0.34535594486289    -0.20927562250965     0.00000000000000     0.00000000000000
    2     0.34535594486289     0.65249192565295    -0.18336701086012     0.00000000000000     0.00000000000000
    3     0.20927562250965     0.18336701086012    -0.32107928882214     0.00000000000000     0.00000000000000
    4     0.00000000000000     0.00000000000000     0.00000000000000     0.07853264598379     0.00000000000000
    5     0.00000000000000     0.00000000000000     0.00000000000000     0.00000000000000     0.07853264598379
    6     1.00000000000000     0.68486025149275    -0.00000000000000     0.00000000000000     0.00000000000000
    7     0.68486025149275     1.00000000000000    -0.00000000000000     0.00000000000000     0.00000000000000
    8    -0.00000000000000    -0.00000000000000     1.00000000000000     0.00000000000000     0.00000000000000
    9     0.00000000000000     0.00000000000000     0.00000000000000     1.00000000000000     0.00000000000000
   10     0.00000000000000     0.00000000000000     0.00000000000000     0.00000000000000     1.00000000000000



  ## Kinetic (Symmetry 0) ##
  Irrep: 1 Size: 10 x 10

                 1                   2                   3                   4                   5

    1     0.96945722711242     0.20123413106538    -0.00000000000000     0.00000000000000     0.00000000000000
    2     0.20123413106538     0.18300000000000     0.00000000000000     0.00000000000000     0.00000000000000
    3    -0.00000000000000     0.00000000000000     1.81750000000000     0.00000000000000     0.00000000000000
    4     0.00000000000000     0.00000000000000     0.00000000000000     1.81750000000000     0.00000000000000
    5     0.00000000000000     0.00000000000000     0.00000000000000     0.00000000000000     1.81750000000000
    6    -0.02036538600151     0.05491117688830     0.03920864862960     0.00000000000000     0.00000000000000
    7     0.05491117688830     0.08541856965265     0.06776645304697     0.00000000000000     0.00000000000000
    8    -0.03920864862960    -0.06776645304697    -0.28019096773021     0.00000000000000     0.00000000000000
    9     0.00000000000000     0.00000000000000     0.00000000000000    -0.00252585422642     0.00000000000000
   10     0.00000000000000     0.00000000000000     0.00000000000000     0.00000000000000    -0.00252585422642

                 6                   7                   8                   9                  10

    1    -0.02036538600151     0.05491117688830    -0.03920864862960     0.00000000000000     0.00000000000000
    2     0.05491117688830     0.08541856965265    -0.06776645304697     0.00000000000000     0.00000000000000
    3     0.03920864862960     0.06776645304697    -0.28019096773021     0.00000000000000     0.00000000000000
    4     0.00000000000000     0.00000000000000     0.00000000000000    -0.00252585422642     0.00000000000000
    5     0.00000000000000     0.00000000000000     0.00000000000000     0.00000000000000    -0.00252585422642
    6     0.96945722711242     0.20123413106538     0.00000000000000     0.00000000000000     0.00000000000000
    7     0.20123413106538     0.18300000000000    -0.00000000000000     0.00000000000000     0.00000000000000
    8     0.00000000000000    -0.00000000000000     1.81750000000000     0.00000000000000     0.00000000000000
    9     0.00000000000000     0.00000000000000     0.00000000000000     1.81750000000000     0.00000000000000
   10     0.00000000000000     0.00000000000000     0.00000000000000     0.00000000000000     1.81750000000000



  ## Potential (Symmetry 0) ##
  Irrep: 1 Size: 10 x 10

                 1                   2                   3                   4                   5

    1    -1.75574076144301    -0.90745956537456    -0.08980822721171     0.00000000000000     0.00000000000000
    2    -0.90745956537456    -0.91095138618341    -0.08365928222194     0.00000000000000     0.00000000000000
    3    -0.08980822721171    -0.08365928222194    -1.32214618084017     0.00000000000000     0.00000000000000
    4     0.00000000000000     0.00000000000000     0.00000000000000    -1.26649425564171     0.00000000000000
    5     0.00000000000000     0.00000000000000     0.00000000000000     0.00000000000000    -1.26649425564171
    6    -0.23728251206215    -0.46685919269005    -0.30241913803554     0.00000000000000     0.00000000000000
    7    -0.46685919269005    -0.63586714014981    -0.25824667344694     0.00000000000000     0.00000000000000
    8     0.30241913803554     0.25824667344694     0.45159351709826     0.00000000000000     0.00000000000000
    9     0.00000000000000     0.00000000000000     0.00000000000000    -0.09640236756422     0.00000000000000
   10     0.00000000000000     0.00000000000000     0.00000000000000     0.00000000000000    -0.09640236756422

                 6                   7                   8                   9                  10

    1    -0.23728251206215    -0.46685919269005     0.30241913803554     0.00000000000000     0.00000000000000
    2    -0.46685919269005    -0.63586714014981     0.25824667344694     0.00000000000000     0.00000000000000
    3    -0.30241913803554    -0.25824667344694     0.45159351709826     0.00000000000000     0.00000000000000
    4     0.00000000000000     0.00000000000000     0.00000000000000    -0.09640236756422     0.00000000000000
    5     0.00000000000000     0.00000000000000     0.00000000000000     0.00000000000000    -0.09640236756422
    6    -1.75574076144301    -0.90745956537456     0.08980822721171     0.00000000000000     0.00000000000000
    7    -0.90745956537456    -0.91095138618341     0.08365928222194     0.00000000000000     0.00000000000000
    8     0.08980822721171     0.08365928222194    -1.32214618084017     0.00000000000000     0.00000000000000
    9     0.00000000000000     0.00000000000000     0.00000000000000    -1.26649425564171     0.00000000000000
   10     0.00000000000000     0.00000000000000     0.00000000000000     0.00000000000000    -1.26649425564171



  ## One Electron Ints (Symmetry 0) ##
  Irrep: 1 Size: 10 x 10

                 1                   2                   3                   4                   5

    1    -0.78628353433058    -0.70622543430917    -0.08980822721171     0.00000000000000     0.00000000000000
    2    -0.70622543430917    -0.72795138618341    -0.08365928222194     0.00000000000000     0.00000000000000
    3    -0.08980822721171    -0.08365928222194     0.49535381915983     0.00000000000000     0.00000000000000
    4     0.00000000000000     0.00000000000000     0.00000000000000     0.55100574435829     0.00000000000000
    5     0.00000000000000     0.00000000000000     0.00000000000000     0.00000000000000     0.55100574435829
    6    -0.25764789806366    -0.41194801580175    -0.26321048940594     0.00000000000000     0.00000000000000
    7    -0.41194801580175    -0.55044857049717    -0.19048022039997     0.00000000000000     0.00000000000000
    8     0.26321048940594     0.19048022039997     0.17140254936805     0.00000000000000     0.00000000000000
    9     0.00000000000000     0.00000000000000     0.00000000000000    -0.09892822179064     0.00000000000000
   10     0.00000000000000     0.00000000000000     0.00000000000000     0.00000000000000    -0.09892822179064

                 6                   7                   8                   9                  10

    1    -0.25764789806366    -0.41194801580175     0.26321048940594     0.00000000000000     0.00000000000000
    2    -0.41194801580175    -0.55044857049717     0.19048022039997     0.00000000000000     0.00000000000000
    3    -0.26321048940594    -0.19048022039997     0.17140254936805     0.00000000000000     0.00000000000000
    4     0.00000000000000     0.00000000000000     0.00000000000000    -0.09892822179064     0.00000000000000
    5     0.00000000000000     0.00000000000000     0.00000000000000     0.00000000000000    -0.09892822179064
    6    -0.78628353433058    -0.70622543430917     0.08980822721171     0.00000000000000     0.00000000000000
    7    -0.70622543430917    -0.72795138618341     0.08365928222194     0.00000000000000     0.00000000000000
    8     0.08980822721171     0.08365928222194     0.49535381915983     0.00000000000000     0.00000000000000
    9     0.00000000000000     0.00000000000000     0.00000000000000     0.55100574435829     0.00000000000000
   10     0.00000000000000     0.00000000000000     0.00000000000000     0.00000000000000     0.55100574435829




	There are 0 unique integrals

  ## Fock (Symmetry 0) ##
  Irrep: 1 Size: 10 x 10

                 1                   2                   3                   4                   5

    1    -0.52166791772515    -0.34015870196790    -0.02766052295431     0.00000000000000     0.00000000000000
    2    -0.34015870196790    -0.32963649989137     0.13582768051000     0.00000000000000     0.00000000000000
    3    -0.02766052295431     0.13582768051000     0.73840589525845     0.00000000000000     0.00000000000000
    4     0.00000000000000     0.00000000000000     0.00000000000000     0.56224239993432     0.00000000000000
    5     0.00000000000000     0.00000000000000     0.00000000000000     0.00000000000000     0.56224239993432
    6    -0.03752579149416    -0.07519786785674    -0.20539136683418    -0.00000000000000     0.00000000000000
    7    -0.07519786785674    -0.13606647442536    -0.17643350908941    -0.00000000000000     0.00000000000000
    8     0.20539136683418     0.17643350908941     0.44420637693134     0.00000000000000     0.00000000000000
    9    -0.00000000000000    -0.00000000000000    -0.00000000000000    -0.14308260514176     0.00000000000000
   10     0.00000000000000     0.00000000000000     0.00000000000000     0.00000000000000    -0.14308260514176

                 6                   7                   8                   9                  10

    1    -0.03752579149416    -0.07519786785675     0.20539136683418    -0.00000000000000     0.00000000000000
    2    -0.07519786785674    -0.13606647442536     0.17643350908941    -0.00000000000000     0.00000000000000
    3    -0.20539136683418    -0.17643350908941     0.44420637693134    -0.00000000000000     0.00000000000000
    4    -0.00000000000000    -0.00000000000000     0.00000000000000    -0.14308260514176     0.00000000000000
    5     0.00000000000000     0.00000000000000     0.00000000000000     0.00000000000000    -0.14308260514176
    6    -0.52166791772515    -0.34015870196790     0.02766052295431     0.00000000000000     0.00000000000000
    7    -0.34015870196790    -0.32963649989137    -0.13582768051000    -0.00000000000000     0.00000000000000
    8     0.02766052295431    -0.13582768051000     0.73840589525845    -0.00000000000000     0.00000000000000
    9     0.00000000000000    -0.00000000000000    -0.00000000000000     0.56224239993432     0.00000000000000
   10     0.00000000000000     0.00000000000000     0.00000000000000     0.00000000000000     0.56224239993432



  ## C (Symmetry 0) ##
  Irrep: 1 Size: 10 x 10

                 1                   2                   3                   4                   5

    1     1.00161471458077     0.78325222867193     0.08553274832101     0.05516048296457    -0.01149270211247
    2    -1.17430658651534    -0.91983245456787     0.15275504640285     0.08215367292613     0.40378464535643
    3     0.39462371104563    -0.62224685220101     0.21060110540647     0.20071470180342     0.09364637503860
    4    -0.39838269112214     0.57944092647398    -0.08868688075543     0.00000000000000     0.02787303092197
    5    -0.20429328167385     0.06306068819800     0.64852549495706    -0.00000000000000     0.00000000000000
    6    -0.04198803383387     0.03864378446929    -0.01235710420467    -0.92385001450014     0.37483586020821
    7     0.28566616676177     0.29711274815211    -0.08993923261214     0.29342416738123    -1.14205739126006
    8     0.05120634654515    -0.12338158914442     0.06155704457068     0.77363716427921     0.08141169282699
    9     0.01566721719142    -0.02278770400163     0.00348779365617    -0.00000000000000    -0.70874954580364
   10     0.05735114708363     0.13733372056092     0.66644430229950     0.00000000000000     0.00000000000000

                 6                   7                   8                   9                  10

    1     0.38378542038915     0.37775652620115    -0.21150054939942    -0.05920425626046    -0.01149270211247
    2     0.70810805646089     0.31563995693969     0.23104616782052    -0.10513907715107     0.40378464535643
    3     0.52881185593204    -0.53417605888397    -0.18324179159431    -0.08634996257839     0.09364637503860
    4     0.39838269112214    -0.57944092647398    -0.08868688075543    -0.00000000000000    -0.02787303092197
    5    -0.20040829685618     0.07407464505156    -0.70303442136827    -0.00000000000000     0.00000000000000
    6    -0.02304500092727     0.05107653653787     0.01621935583863    -0.90788378778275     0.37483586020821
    7    -0.37987843269945    -0.13969961639800    -0.04575713287573     0.45624755303520    -1.14205739126006
    8     0.20556050508687    -0.02207537311422    -0.03008612837812    -0.75767093756183     0.08141169282699
    9    -0.01566721719142     0.02278770400163     0.00348779365617    -0.00000000000000     0.70874954580364
   10    -0.04143542667249    -0.14272684907408     0.71959717070509    -0.00000000000000     0.00000000000000




 In Bisection function HOMO = -0.963  LUMO =  1.258

 0.14770 = (-0.96297 + 1.25837)/2.0
 sum -  nocc_ = 3.00000000
 On Iteration in Bisection 0
 a: 3.00000  b:-0.50000

 -0.40764 = (-0.96297 + 0.14770)/2.0
 sum -  nocc_ = 1.00000000
 On Iteration in Bisection 1
 a: 1.00000  b:-0.50000

 -0.68530 = (-0.96297 + -0.40764)/2.0
 sum -  nocc_ = 1.00000000
 On Iteration in Bisection 2
 a: 1.00000  b:-0.50000

 -0.82414 = (-0.96297 + -0.68530)/2.0
 sum -  nocc_ = 0.00000000
 ef = -0.82414 sum = 1.00000 

 Iter: 0  T:      100.000  val:-0.824139  sumni 0.00000
 ne = 1.0000

Nuc Replusion =       0.377983720421
 1st iteration =       0.238423899800
 In Bisection function HOMO = -0.227  LUMO =  2.168

 0.97081 = (-0.22659 + 2.16822)/2.0
 sum -  nocc_ = 3.00000000
 On Iteration in Bisection 0
 a: 3.00000  b:-0.50000

 0.37211 = (-0.22659 + 0.97081)/2.0
 sum -  nocc_ = 1.00000000
 On Iteration in Bisection 1
 a: 1.00000  b:-0.50000

 0.07276 = (-0.22659 + 0.37211)/2.0
 sum -  nocc_ = 0.00000000
 ef = 0.07276 sum = 1.00000 

 Iter: 0  T:      100.000  val:0.072757  sumni 0.00000
 ne = 1.0000

 iter:1  failiter:1  energy:     -1.095688029606  total:     -0.717704309185  error:     -0.074491193395
 In Bisection function HOMO = -0.383  LUMO =  2.268

 0.94235 = (-0.38302 + 2.26773)/2.0
 sum -  nocc_ = 3.00000000
 On Iteration in Bisection 0
 a: 3.00000  b:-0.50000

 0.27967 = (-0.38302 + 0.94235)/2.0
 sum -  nocc_ = 1.00000000
 On Iteration in Bisection 1
 a: 1.00000  b:-0.50000

 -0.05168 = (-0.38302 + 0.27967)/2.0
 sum -  nocc_ = 0.00000000
 ef = -0.05168 sum = 1.00000 

 Iter: 1  T:      100.000  val:-0.051678  sumni 0.00000
 ne = 1.0000

 iter:2  failiter:2  energy:     -1.326319985854  total:     -0.948336265433  error:     -0.230631956248
 In Bisection function HOMO = -0.455  LUMO =  2.235

 0.89023 = (-0.45458 + 2.23504)/2.0
 sum -  nocc_ = 3.00000000
 On Iteration in Bisection 0
 a: 3.00000  b:-0.50000

 0.21782 = (-0.45458 + 0.89023)/2.0
 sum -  nocc_ = 1.00000000
 On Iteration in Bisection 1
 a: 1.00000  b:-0.50000

 -0.11838 = (-0.45458 + 0.21782)/2.0
 sum -  nocc_ = 0.00000000
 ef = -0.11838 sum = 1.00000 

 Iter: 2  T:      100.000  val:-0.118382  sumni 0.00000
 ne = 1.0000

 iter:3  failiter:3  energy:     -1.400461628538  total:     -1.022477908117  error:     -0.074141642684
 In Bisection function HOMO = -0.453  LUMO =  2.238

 0.89227 = (-0.45322 + 2.23776)/2.0
 sum -  nocc_ = 3.00000000
 On Iteration in Bisection 0
 a: 3.00000  b:-0.50000

 0.21952 = (-0.45322 + 0.89227)/2.0
 sum -  nocc_ = 1.00000000
 On Iteration in Bisection 1
 a: 1.00000  b:-0.50000

 -0.11685 = (-0.45322 + 0.21952)/2.0
 sum -  nocc_ = 0.00000000
 ef = -0.11685 sum = 1.00000 

 Iter: 3  T:      100.000  val:-0.116850  sumni 0.00000
 ne = 1.0000

 iter:4  failiter:4  energy:     -1.399352449343  total:     -1.021368728921  error:      0.001109179195
 In Bisection function HOMO = -0.453  LUMO =  2.238

 0.89251 = (-0.45305 + 2.23807)/2.0
 sum -  nocc_ = 3.00000000
 On Iteration in Bisection 0
 a: 3.00000  b:-0.50000

 0.21973 = (-0.45305 + 0.89251)/2.0
 sum -  nocc_ = 1.00000000
 On Iteration in Bisection 1
 a: 1.00000  b:-0.50000

 -0.11666 = (-0.45305 + 0.21973)/2.0
 sum -  nocc_ = 0.00000000
 ef = -0.11666 sum = 1.00000 

 Iter: 4  T:      100.000  val:-0.116657  sumni 0.00000
 ne = 1.0000

 iter:5  failiter:5  energy:     -1.399199800304  total:     -1.021216079882  error:      0.000152649039
 In Bisection function HOMO = -0.453  LUMO =  2.238

 0.89254 = (-0.45303 + 2.23810)/2.0
 sum -  nocc_ = 3.00000000
 On Iteration in Bisection 0
 a: 3.00000  b:-0.50000

 0.21975 = (-0.45303 + 0.89254)/2.0
 sum -  nocc_ = 1.00000000
 On Iteration in Bisection 1
 a: 1.00000  b:-0.50000

 -0.11664 = (-0.45303 + 0.21975)/2.0
 sum -  nocc_ = 0.00000000
 ef = -0.11664 sum = 1.00000 

 Iter: 5  T:      100.000  val:-0.116636  sumni 0.00000
 ne = 1.0000

 iter:6  failiter:6  energy:     -1.399182298697  total:     -1.021198578276  error:      0.000017501607
 In Bisection function HOMO = -0.453  LUMO =  2.238

 0.89254 = (-0.45302 + 2.23810)/2.0
 sum -  nocc_ = 3.00000000
 On Iteration in Bisection 0
 a: 3.00000  b:-0.50000

 0.21976 = (-0.45302 + 0.89254)/2.0
 sum -  nocc_ = 1.00000000
 On Iteration in Bisection 1
 a: 1.00000  b:-0.50000

 -0.11663 = (-0.45302 + 0.21976)/2.0
 sum -  nocc_ = 0.00000000
 ef = -0.11663 sum = 1.00000 

 Iter: 6  T:      100.000  val:-0.116634  sumni 0.00000
 ne = 1.0000

 iter:7  failiter:7  energy:     -1.399180610004  total:     -1.021196889582  error:      0.000001688693
 In Bisection function HOMO = -0.453  LUMO =  2.238

 0.89254 = (-0.45302 + 2.23810)/2.0
 sum -  nocc_ = 3.00000000
 On Iteration in Bisection 0
 a: 3.00000  b:-0.50000

 0.21976 = (-0.45302 + 0.89254)/2.0
 sum -  nocc_ = 1.00000000
 On Iteration in Bisection 1
 a: 1.00000  b:-0.50000

 -0.11663 = (-0.45302 + 0.21976)/2.0
 sum -  nocc_ = 0.00000000
 ef = -0.11663 sum = 1.00000 

 Iter: 7  T:      100.000  val:-0.116634  sumni 0.00000
 ne = 1.0000

 iter:8  failiter:8  energy:     -1.399180525763  total:     -1.021196805341  error:      0.000000084241
 In Bisection function HOMO = -0.453  LUMO =  2.238

 0.89254 = (-0.45302 + 2.23810)/2.0
 sum -  nocc_ = 3.00000000
 On Iteration in Bisection 0
 a: 3.00000  b:-0.50000

 0.21976 = (-0.45302 + 0.89254)/2.0
 sum -  nocc_ = 1.00000000
 On Iteration in Bisection 1
 a: 1.00000  b:-0.50000

 -0.11663 = (-0.45302 + 0.21976)/2.0
 sum -  nocc_ = 0.00000000
 ef = -0.11663 sum = 1.00000 

 Iter: 8  T:      100.000  val:-0.116634  sumni 0.00000
 ne = 1.0000

 iter:9  failiter:9  energy:     -1.399180544620  total:     -1.021196824198  error:     -0.000000018857
 In Bisection function HOMO = -0.453  LUMO =  2.238

 0.89254 = (-0.45302 + 2.23810)/2.0
 sum -  nocc_ = 3.00000000
 On Iteration in Bisection 0
 a: 3.00000  b:-0.50000

 0.21976 = (-0.45302 + 0.89254)/2.0
 sum -  nocc_ = 1.00000000
 On Iteration in Bisection 1
 a: 1.00000  b:-0.50000

 -0.11663 = (-0.45302 + 0.21976)/2.0
 sum -  nocc_ = 0.00000000
 ef = -0.11663 sum = 1.00000 

 Iter: 9  T:      100.000  val:-0.116634  sumni 0.00000
 ne = 1.0000

 iter:10  failiter:10  energy:     -1.399180553417  total:     -1.021196832995  error:     -0.000000008797
 In Bisection function HOMO = -0.453  LUMO =  2.238

 0.89254 = (-0.45302 + 2.23810)/2.0
 sum -  nocc_ = 3.00000000
 On Iteration in Bisection 0
 a: 3.00000  b:-0.50000

 0.21976 = (-0.45302 + 0.89254)/2.0
 sum -  nocc_ = 1.00000000
 On Iteration in Bisection 1
 a: 1.00000  b:-0.50000

 -0.11663 = (-0.45302 + 0.21976)/2.0
 sum -  nocc_ = 0.00000000
 ef = -0.11663 sum = 1.00000 

 Iter: 10  T:      100.000  val:-0.116634  sumni 0.00000
 ne = 1.0000

 iter:11  failiter:11  energy:     -1.399180555878  total:     -1.021196835457  error:     -0.000000002461
 In Bisection function HOMO = -0.453  LUMO =  2.238

 0.89254 = (-0.45302 + 2.23810)/2.0
 sum -  nocc_ = 3.00000000
 On Iteration in Bisection 0
 a: 3.00000  b:-0.50000

 0.21976 = (-0.45302 + 0.89254)/2.0
 sum -  nocc_ = 1.00000000
 On Iteration in Bisection 1
 a: 1.00000  b:-0.50000

 -0.11663 = (-0.45302 + 0.21976)/2.0
 sum -  nocc_ = 0.00000000
 ef = -0.11663 sum = 1.00000 

 Iter: 11  T:      100.000  val:-0.116634  sumni 0.00000
 ne = 1.0000

 iter:12  failiter:12  energy:     -1.399180556467  total:     -1.021196836045  error:     -0.000000000589
 In Bisection function HOMO = -0.453  LUMO =  2.238

 0.89254 = (-0.45302 + 2.23810)/2.0
 sum -  nocc_ = 3.00000000
 On Iteration in Bisection 0
 a: 3.00000  b:-0.50000

 0.21976 = (-0.45302 + 0.89254)/2.0
 sum -  nocc_ = 1.00000000
 On Iteration in Bisection 1
 a: 1.00000  b:-0.50000

 -0.11663 = (-0.45302 + 0.21976)/2.0
 sum -  nocc_ = 0.00000000
 ef = -0.11663 sum = 1.00000 

 Iter: 12  T:      100.000  val:-0.116634  sumni 0.00000
 ne = 1.0000

 iter:13  failiter:13  energy:     -1.399180556597  total:     -1.021196836176  error:     -0.000000000131
 In Bisection function HOMO = -0.453  LUMO =  2.238

 0.89254 = (-0.45302 + 2.23810)/2.0
 sum -  nocc_ = 3.00000000
 On Iteration in Bisection 0
 a: 3.00000  b:-0.50000

 0.21976 = (-0.45302 + 0.89254)/2.0
 sum -  nocc_ = 1.00000000
 On Iteration in Bisection 1
 a: 1.00000  b:-0.50000

 -0.11663 = (-0.45302 + 0.21976)/2.0
 sum -  nocc_ = 0.00000000
 ef = -0.11663 sum = 1.00000 

 Iter: 13  T:      100.000  val:-0.116634  sumni 0.00000
 ne = 1.0000

 iter:14  failiter:14  energy:     -1.399180556625  total:     -1.021196836204  error:     -0.000000000028
 In Bisection function HOMO = -0.453  LUMO =  2.238

 0.89254 = (-0.45302 + 2.23810)/2.0
 sum -  nocc_ = 3.00000000
 On Iteration in Bisection 0
 a: 3.00000  b:-0.50000

 0.21976 = (-0.45302 + 0.89254)/2.0
 sum -  nocc_ = 1.00000000
 On Iteration in Bisection 1
 a: 1.00000  b:-0.50000

 -0.11663 = (-0.45302 + 0.21976)/2.0
 sum -  nocc_ = 0.00000000
 ef = -0.11663 sum = 1.00000 

 Iter: 14  T:      100.000  val:-0.116634  sumni 0.00000
 ne = 1.0000

 iter:15  failiter:15  energy:     -1.399180556631  total:     -1.021196836209  error:     -0.000000000006
 In Bisection function HOMO = -0.453  LUMO =  2.238

 0.89254 = (-0.45302 + 2.23810)/2.0
 sum -  nocc_ = 3.00000000
 On Iteration in Bisection 0
 a: 3.00000  b:-0.50000

 0.21976 = (-0.45302 + 0.89254)/2.0
 sum -  nocc_ = 1.00000000
 On Iteration in Bisection 1
 a: 1.00000  b:-0.50000

 -0.11663 = (-0.45302 + 0.21976)/2.0
 sum -  nocc_ = 0.00000000
 ef = -0.11663 sum = 1.00000 

 Iter: 15  T:      100.000  val:-0.116634  sumni 0.00000
 ne = 1.0000

 iter:16  failiter:16  energy:     -1.399180556632  total:     -1.021196836211  error:     -0.000000000001
 In Bisection function HOMO = -0.453  LUMO =  2.238

 0.89254 = (-0.45302 + 2.23810)/2.0
 sum -  nocc_ = 3.00000000
 On Iteration in Bisection 0
 a: 3.00000  b:-0.50000

 0.21976 = (-0.45302 + 0.89254)/2.0
 sum -  nocc_ = 1.00000000
 On Iteration in Bisection 1
 a: 1.00000  b:-0.50000

 -0.11663 = (-0.45302 + 0.21976)/2.0
 sum -  nocc_ = 0.00000000
 ef = -0.11663 sum = 1.00000 

 Iter: 16  T:      100.000  val:-0.116634  sumni 0.00000
 ne = 1.0000

 iter:17  failiter:17  energy:     -1.399180556632  total:     -1.021196836211  error:     -0.000000000000
 FTHFEnergy =    -1.021197
 FD_dis[0] = 1.00000000 with -0.453024 eig value
 FD_dis[1] = 0.00000000 with 0.059248 eig value
 FD_dis[2] = 0.00000000 with 0.624577 eig value
 FD_dis[3] = 0.00000000 with 0.689021 eig value
 FD_dis[4] = 0.00000000 with 1.321394 eig value
 FD_dis[5] = 0.00000000 with 1.360058 eig value
 FD_dis[6] = 0.00000000 with 1.360058 eig value
 FD_dis[7] = 0.00000000 with 1.656918 eig value
 FD_dis[8] = 0.00000000 with 1.656918 eig value
 FD_dis[9] = 0.00000000 with 2.238098 eig value
*** PSI4 exiting successfully. Buy a developer a beer!
