    -----------------------------------------------------------------------
          PSI4: An Open-Source Ab Initio Electronic Structure Package
                              PSI 4.0 Driver

               Git: Rev {master} 556e8139d3cfa1f96ccffe2cdf22cc56a185d2b2

    J. M. Turney, A. C. Simmonett, R. M. Parrish, E. G. Hohenstein,
    F. A. Evangelista, J. T. Fermann, B. J. Mintz, L. A. Burns, J. J. Wilke,
    M. L. Abrams, N. J. Russ, M. L. Leininger, C. L. Janssen, E. T. Seidl,
    W. D. Allen, H. F. Schaefer, R. A. King, E. F. Valeev, C. D. Sherrill,
    and T. D. Crawford, WIREs Comput. Mol. Sci. 2, 556-565 (2012)
    (doi: 10.1002/wcms.93)

                         Additional Contributions by
    A. E. DePrince, M. Saitow, U. Bozkaya, A. Yu. Sokolov
    -----------------------------------------------------------------------

    Process ID:  14561
    PSI4DATADIR: /Users/kevinhannon/Programs/psi4cmake/psi4/lib
    Memory level set to 256.000 MB

  ==> Input File <==

--------------------------------------------------------------------------

# PYTHONPATH must include directory above plugin directory.
#     Define either externally or here, then import plugin.
sys.path.insert(0, '/Users/kevinhannon/Programs/Quantum_Programs/Quantum-Programs/GS/')
import scf

molecule {
0 1
H
H 1 1.00000
symmetry c1
units angstrom
}


set {
  basis cc-pvdz
  reference rhf
  scf_type  pk
}

set scf {
  DO_FTHF true
  MAX_ITER 130
  MAX_TEMP 20000
  TEMP_INCREMENT 0
  bisect  true
  bisect_iter  40
}
energy('rhf')
energy('scf')


--------------------------------------------------------------------------

*** tstart() called on Kevins-MacBook-Pro.local
*** at Sun Apr 12 15:45:57 2015

/Users/kevinhannon/Programs/Quantum_Programs/Quantum-Programs/GS/scf/scf.so loaded.

*** tstart() called on Kevins-MacBook-Pro.local
*** at Sun Apr 12 15:45:57 2015


         ---------------------------------------------------------
                                   SCF
            by Justin Turney, Rob Parrish, and Andy Simmonett
                              RHF Reference
                        1 Threads,    256 MiB Core
         ---------------------------------------------------------

  ==> Geometry <==

    Molecular point group: c1
    Full point group: D_inf_h

    Geometry (in Angstrom), charge = 0, multiplicity = 1:

       Center              X                  Y                   Z       
    ------------   -----------------  -----------------  -----------------
           H          0.000000000000     0.000000000000    -0.500000000000
           H          0.000000000000     0.000000000000     0.500000000000

  Running in c1 symmetry.

  Rotational constants: A = ************  B =     33.45348  C =     33.45348 [cm^-1]
  Rotational constants: A = ************  B = 1002910.20547  C = 1002910.20547 [MHz]
  Nuclear repulsion =    0.529177208590000

  Charge       = 0
  Multiplicity = 1
  Electrons    = 2
  Nalpha       = 1
  Nbeta        = 1

  ==> Algorithm <==

  SCF Algorithm Type is PK.
  DIIS enabled.
  MOM disabled.
  Fractional occupation disabled.
  Guess Type is CORE.
  Energy threshold   = 1.00e-06
  Density threshold  = 1.00e-06
  Integral threshold = 0.00e+00

  ==> Primary Basis <==

  Basis Set: CC-PVDZ
    Number of shells: 6
    Number of basis function: 10
    Number of Cartesian functions: 10
    Spherical Harmonics?: true
    Max angular momentum: 1

  ==> Pre-Iterations <==

   -------------------------------------------------------
    Irrep   Nso     Nmo     Nalpha   Nbeta   Ndocc  Nsocc
   -------------------------------------------------------
     A         10      10       0       0       0       0
   -------------------------------------------------------
    Total      10      10       1       1       1       0
   -------------------------------------------------------

  Starting with a DF guess...

 OEINTS: Overlap, kinetic, potential, dipole, and quadrupole integrals
         stored in file 35.

  ==> Integral Setup <==

  ==> DFJK: Density-Fitted J/K Matrices <==

    J tasked:                  Yes
    K tasked:                  Yes
    wK tasked:                  No
    OpenMP threads:              1
    Integrals threads:           1
    Memory (MB):               183
    Algorithm:                Core
    Integral Cache:           NONE
    Schwarz Cutoff:          1E-12
    Fitting Condition:       1E-12

   => Auxiliary Basis Set <=

  Basis Set: 
    Number of shells: 18
    Number of basis function: 46
    Number of Cartesian functions: 50
    Spherical Harmonics?: true
    Max angular momentum: 2

  Minimum eigenvalue in the overlap matrix is 1.1235676137E-01.
  Using Symmetric Orthogonalization.
  SCF Guess: Core (One-Electron) Hamiltonian.

  ==> Iterations <==

                           Total Energy        Delta E     RMS |[F,P]|

   @DF-RHF iter   1:    -1.05033294564880   -1.05033e+00   2.12825e-02 
   @DF-RHF iter   2:    -1.09856668283291   -4.82337e-02   3.76192e-03 DIIS
   @DF-RHF iter   3:    -1.10015283976895   -1.58616e-03   1.74077e-04 DIIS
   @DF-RHF iter   4:    -1.10015471058277   -1.87081e-06   9.11522e-06 DIIS
   @DF-RHF iter   5:    -1.10015472010502   -9.52224e-09   1.26195e-08 DIIS

  DF guess converged.

  ==> Integral Setup <==

 MINTS: Wrapper to libmints.
   by Justin Turney

   Calculation information:
      Number of atoms:                   2
      Number of AO shells:               6
      Number of SO shells:               6
      Number of primitives:             10
      Number of atomic orbitals:        10
      Number of basis functions:        10

      Number of irreps:                  1
      Integral cutoff                 0.00e+00
      Number of functions per irrep: [  10 ]

 OEINTS: Overlap, kinetic, potential, dipole, and quadrupole integrals
         stored in file 35.

      Computing two-electron integrals...done
      Computed 512 non-zero two-electron integrals.
        Stored in file 33.

	Batch   1 pq = [       0,      55] index = [             0,1540]
  ==> DiskJK: Disk-Based J/K Matrices <==

    J tasked:                  Yes
    K tasked:                  Yes
    wK tasked:                  No
    Memory (MB):               183
    Schwarz Cutoff:          1E-12

   @RHF iter   6:    -1.10015376408255    9.56022e-07   2.96163e-07 DIIS

  ==> Post-Iterations <==

    Orbital Energies (a.u.)
    -----------------------

    Doubly Occupied:                                                      

       1A     -0.525044  

    Virtual:                                                              

       2A      0.143588     3A      0.539607     4A      0.794799  
       5A      1.287130     6A      1.287130     7A      1.679162  
       8A      1.871551     9A      1.871551    10A      2.735411  

    Final Occupation by Irrep:
              A 
    DOCC [     1 ]

  Energy converged.

  @RHF Final Energy:    -1.10015376408255

   => Energetics <=

    Nuclear Repulsion Energy =              0.5291772085899999
    One-Electron Energy =                  -2.2085747047329503
    Two-Electron Energy =                   0.5792437320603971
    DFT Exchange-Correlation Energy =       0.0000000000000000
    Empirical Dispersion Energy =           0.0000000000000000
    PCM Polarization Energy =               0.0000000000000000
    EFP Energy =                            0.0000000000000000
    Total Energy =                         -1.1001537640825532

    Alert: EFP and PCM quantities not currently incorporated into SCF psivars.

Properties will be evaluated at   0.000000,   0.000000,   0.000000 Bohr
  ==> Properties <==


Properties computed using the SCF density matrix

  Nuclear Dipole Moment: (a.u.)
     X:     0.0000      Y:     0.0000      Z:     0.0000

  Electronic Dipole Moment: (a.u.)
     X:     0.0000      Y:     0.0000      Z:    -0.0000

  Dipole Moment: (a.u.)
     X:     0.0000      Y:     0.0000      Z:    -0.0000     Total:     0.0000

  Dipole Moment: (Debye)
     X:     0.0000      Y:     0.0000      Z:    -0.0000     Total:     0.0000


  Saving occupied orbitals to File 180.

*** tstop() called on Kevins-MacBook-Pro.local at Sun Apr 12 15:45:57 2015
Module time:
	user time   =       0.20 seconds =       0.00 minutes
	system time =       0.01 seconds =       0.00 minutes
	total time  =          0 seconds =       0.00 minutes
Total time:
	user time   =       0.21 seconds =       0.00 minutes
	system time =       0.01 seconds =       0.00 minutes
	total time  =          0 seconds =       0.00 minutes

*** tstart() called on Kevins-MacBook-Pro.local
*** at Sun Apr 12 15:45:57 2015


         ---------------------------------------------------------
                                   SCF
            by Justin Turney, Rob Parrish, and Andy Simmonett
                              RHF Reference
                        1 Threads,    256 MiB Core
         ---------------------------------------------------------

  ==> Geometry <==

    Molecular point group: c1
    Full point group: D_inf_h

    Geometry (in Angstrom), charge = 0, multiplicity = 1:

       Center              X                  Y                   Z       
    ------------   -----------------  -----------------  -----------------
           H          0.000000000000     0.000000000000    -0.500000000000
           H          0.000000000000     0.000000000000     0.500000000000

  Running in c1 symmetry.

  Rotational constants: A = ************  B =     33.45348  C =     33.45348 [cm^-1]
  Rotational constants: A = ************  B = 1002910.20547  C = 1002910.20547 [MHz]
  Nuclear repulsion =    0.529177208590000

  Charge       = 0
  Multiplicity = 1
  Electrons    = 2
  Nalpha       = 1
  Nbeta        = 1

  ==> Algorithm <==

  SCF Algorithm Type is PK.
  DIIS enabled.
  MOM disabled.
  Fractional occupation disabled.
  Guess Type is CORE.
  Energy threshold   = 1.00e-08
  Density threshold  = 1.00e-08
  Integral threshold = 0.00e+00

  ==> Primary Basis <==

  Basis Set: CC-PVDZ
    Number of shells: 6
    Number of basis function: 10
    Number of Cartesian functions: 10
    Spherical Harmonics?: true
    Max angular momentum: 1

  ==> Pre-Iterations <==

   -------------------------------------------------------
    Irrep   Nso     Nmo     Nalpha   Nbeta   Ndocc  Nsocc
   -------------------------------------------------------
     A         10      10       0       0       0       0
   -------------------------------------------------------
    Total      10      10       1       1       1       0
   -------------------------------------------------------

  Starting with a DF guess...

 OEINTS: Overlap, kinetic, potential, dipole, and quadrupole integrals
         stored in file 35.

  ==> Integral Setup <==

  ==> DFJK: Density-Fitted J/K Matrices <==

    J tasked:                  Yes
    K tasked:                  Yes
    wK tasked:                  No
    OpenMP threads:              1
    Integrals threads:           1
    Memory (MB):               183
    Algorithm:                Core
    Integral Cache:           NONE
    Schwarz Cutoff:          1E-12
    Fitting Condition:       1E-12

   => Auxiliary Basis Set <=

  Basis Set: 
    Number of shells: 18
    Number of basis function: 46
    Number of Cartesian functions: 50
    Spherical Harmonics?: true
    Max angular momentum: 2

  Minimum eigenvalue in the overlap matrix is 1.1235676137E-01.
  Using Symmetric Orthogonalization.
  SCF Guess: Core (One-Electron) Hamiltonian.

  ==> Iterations <==

                           Total Energy        Delta E     RMS |[F,P]|

   @DF-RHF iter   1:    -1.05033294564880   -1.05033e+00   2.12825e-02 
   @DF-RHF iter   2:    -1.09856668283291   -4.82337e-02   3.76192e-03 DIIS
   @DF-RHF iter   3:    -1.10015283976895   -1.58616e-03   1.74077e-04 DIIS
   @DF-RHF iter   4:    -1.10015471058277   -1.87081e-06   9.11522e-06 DIIS
   @DF-RHF iter   5:    -1.10015472010502   -9.52224e-09   1.26195e-08 DIIS
   @DF-RHF iter   6:    -1.10015472010503   -1.79856e-14   8.25985e-12 DIIS

  DF guess converged.

  ==> Integral Setup <==

 MINTS: Wrapper to libmints.
   by Justin Turney

   Calculation information:
      Number of atoms:                   2
      Number of AO shells:               6
      Number of SO shells:               6
      Number of primitives:             10
      Number of atomic orbitals:        10
      Number of basis functions:        10

      Number of irreps:                  1
      Integral cutoff                 0.00e+00
      Number of functions per irrep: [  10 ]

 OEINTS: Overlap, kinetic, potential, dipole, and quadrupole integrals
         stored in file 35.

      Computing two-electron integrals...done
      Computed 512 non-zero two-electron integrals.
        Stored in file 33.

	Batch   1 pq = [       0,      55] index = [             0,1540]
  ==> DiskJK: Disk-Based J/K Matrices <==

    J tasked:                  Yes
    K tasked:                  Yes
    wK tasked:                  No
    Memory (MB):               183
    Schwarz Cutoff:          1E-12

   @RHF iter   7:    -1.10015376408255    9.56022e-07   2.96163e-07 DIIS
   @RHF iter   8:    -1.10015376408716   -4.60276e-12   4.67633e-08 DIIS
   @RHF iter   9:    -1.10015376408728   -1.21014e-13   1.05260e-09 DIIS

  ==> Post-Iterations <==

    Orbital Energies (a.u.)
    -----------------------

    Doubly Occupied:                                                      

       1A     -0.525044  

    Virtual:                                                              

       2A      0.143588     3A      0.539607     4A      0.794799  
       5A      1.287130     6A      1.287130     7A      1.679162  
       8A      1.871551     9A      1.871551    10A      2.735411  

    Final Occupation by Irrep:
              A 
    DOCC [     1 ]

  Energy converged.

  @RHF Final Energy:    -1.10015376408728

   => Energetics <=

    Nuclear Repulsion Energy =              0.5291772085899999
    One-Electron Energy =                  -2.2085745379673956
    Two-Electron Energy =                   0.5792435652901178
    DFT Exchange-Correlation Energy =       0.0000000000000000
    Empirical Dispersion Energy =           0.0000000000000000
    PCM Polarization Energy =               0.0000000000000000
    EFP Energy =                            0.0000000000000000
    Total Energy =                         -1.1001537640872778

    Alert: EFP and PCM quantities not currently incorporated into SCF psivars.

Properties will be evaluated at   0.000000,   0.000000,   0.000000 Bohr
  ==> Properties <==


Properties computed using the SCF density matrix

  Nuclear Dipole Moment: (a.u.)
     X:     0.0000      Y:     0.0000      Z:     0.0000

  Electronic Dipole Moment: (a.u.)
     X:     0.0000      Y:    -0.0000      Z:    -0.0000

  Dipole Moment: (a.u.)
     X:     0.0000      Y:    -0.0000      Z:    -0.0000     Total:     0.0000

  Dipole Moment: (Debye)
     X:     0.0000      Y:    -0.0000      Z:    -0.0000     Total:     0.0000


  Saving occupied orbitals to File 180.

*** tstop() called on Kevins-MacBook-Pro.local at Sun Apr 12 15:45:57 2015
Module time:
	user time   =       0.19 seconds =       0.00 minutes
	system time =       0.01 seconds =       0.00 minutes
	total time  =          0 seconds =       0.00 minutes
Total time:
	user time   =       0.40 seconds =       0.01 minutes
	system time =       0.02 seconds =       0.00 minutes
	total time  =          0 seconds =       0.00 minutes
Reading options from the SCF block
Calling plugin scf.so.
    Molecular point group: c1
    Full point group: D_inf_h

    Geometry (in Angstrom), charge = 0, multiplicity = 1:

       Center              X                  Y                   Z       
    ------------   -----------------  -----------------  -----------------
           H          0.000000000000     0.000000000000    -0.500000000000
           H          0.000000000000     0.000000000000     0.500000000000


    Nuclear repulsion energy:       0.52917721

  ## Overlap (Symmetry 0) ##
  Irrep: 1 Size: 10 x 10

                 1                   2                   3                   4                   5

    1     1.00000000000000     0.68486025149275     0.00000000000000     0.00000000000000     0.00000000000000
    2     0.68486025149275     1.00000000000000     0.00000000000000     0.00000000000000     0.00000000000000
    3     0.00000000000000     0.00000000000000     1.00000000000000     0.00000000000000     0.00000000000000
    4     0.00000000000000     0.00000000000000     0.00000000000000     1.00000000000000     0.00000000000000
    5     0.00000000000000     0.00000000000000     0.00000000000000     0.00000000000000     1.00000000000000
    6     0.37512845364459     0.48284141882993     0.42735596907041     0.00000000000000     0.00000000000000
    7     0.48284141882993     0.80425816846052     0.18738393724567     0.00000000000000     0.00000000000000
    8    -0.42735596907041    -0.18738393724567    -0.43584058630853     0.00000000000000     0.00000000000000
    9     0.00000000000000     0.00000000000000     0.00000000000000     0.27305498996648     0.00000000000000
   10     0.00000000000000     0.00000000000000     0.00000000000000     0.00000000000000     0.27305498996648

                 6                   7                   8                   9                  10

    1     0.37512845364459     0.48284141882993    -0.42735596907041     0.00000000000000     0.00000000000000
    2     0.48284141882993     0.80425816846052    -0.18738393724567     0.00000000000000     0.00000000000000
    3     0.42735596907041     0.18738393724567    -0.43584058630853     0.00000000000000     0.00000000000000
    4     0.00000000000000     0.00000000000000     0.00000000000000     0.27305498996648     0.00000000000000
    5     0.00000000000000     0.00000000000000     0.00000000000000     0.00000000000000     0.27305498996648
    6     1.00000000000000     0.68486025149275    -0.00000000000000     0.00000000000000     0.00000000000000
    7     0.68486025149275     1.00000000000000    -0.00000000000000     0.00000000000000     0.00000000000000
    8    -0.00000000000000    -0.00000000000000     1.00000000000000     0.00000000000000     0.00000000000000
    9     0.00000000000000     0.00000000000000     0.00000000000000     1.00000000000000     0.00000000000000
   10     0.00000000000000     0.00000000000000     0.00000000000000     0.00000000000000     1.00000000000000



  ## Kinetic (Symmetry 0) ##
  Irrep: 1 Size: 10 x 10

                 1                   2                   3                   4                   5

    1     0.96945722711242     0.20123413106538     0.00000000000000     0.00000000000000     0.00000000000000
    2     0.20123413106538     0.18300000000000     0.00000000000000     0.00000000000000     0.00000000000000
    3     0.00000000000000     0.00000000000000     1.81750000000000     0.00000000000000     0.00000000000000
    4     0.00000000000000     0.00000000000000     0.00000000000000     1.81750000000000     0.00000000000000
    5     0.00000000000000     0.00000000000000     0.00000000000000     0.00000000000000     1.81750000000000
    6     0.09774181479005     0.10856605309856     0.34171741831377     0.00000000000000     0.00000000000000
    7     0.10856605309856     0.12580538858505     0.08327279906454     0.00000000000000     0.00000000000000
    8    -0.34171741831377    -0.08327279906454    -0.89620211749465     0.00000000000000     0.00000000000000
    9     0.00000000000000     0.00000000000000     0.00000000000000     0.23859390228811     0.00000000000000
   10     0.00000000000000     0.00000000000000     0.00000000000000     0.00000000000000     0.23859390228811

                 6                   7                   8                   9                  10

    1     0.09774181479005     0.10856605309856    -0.34171741831377     0.00000000000000     0.00000000000000
    2     0.10856605309856     0.12580538858505    -0.08327279906454     0.00000000000000     0.00000000000000
    3     0.34171741831377     0.08327279906454    -0.89620211749465     0.00000000000000     0.00000000000000
    4     0.00000000000000     0.00000000000000     0.00000000000000     0.23859390228811     0.00000000000000
    5     0.00000000000000     0.00000000000000     0.00000000000000     0.00000000000000     0.23859390228811
    6     0.96945722711242     0.20123413106538    -0.00000000000000     0.00000000000000     0.00000000000000
    7     0.20123413106538     0.18300000000000    -0.00000000000000     0.00000000000000     0.00000000000000
    8    -0.00000000000000    -0.00000000000000     1.81750000000000     0.00000000000000     0.00000000000000
    9     0.00000000000000     0.00000000000000     0.00000000000000     1.81750000000000     0.00000000000000
   10     0.00000000000000     0.00000000000000     0.00000000000000     0.00000000000000     1.81750000000000



  ## Potential (Symmetry 0) ##
  Irrep: 1 Size: 10 x 10

                 1                   2                   3                   4                   5

    1    -1.90292357760548    -0.99791092370337    -0.16998647827047     0.00000000000000     0.00000000000000
    2    -0.99791092370337    -0.98770528048000    -0.14731984590992     0.00000000000000     0.00000000000000
    3    -0.16998647827047    -0.14731984590992    -1.52835088813008     0.00000000000000     0.00000000000000
    4     0.00000000000000     0.00000000000000     0.00000000000000    -1.38542116711783     0.00000000000000
    5     0.00000000000000     0.00000000000000     0.00000000000000     0.00000000000000    -1.38542116711783
    6    -0.67772137741609    -0.72975026760018    -0.81011155629267     0.00000000000000     0.00000000000000
    7    -0.72975026760018    -0.83549450576911    -0.36152671367317     0.00000000000000     0.00000000000000
    8     0.81011155629267     0.36152671367317     0.78535897658410     0.00000000000000     0.00000000000000
    9     0.00000000000000     0.00000000000000     0.00000000000000    -0.39543532921353     0.00000000000000
   10     0.00000000000000     0.00000000000000     0.00000000000000     0.00000000000000    -0.39543532921353

                 6                   7                   8                   9                  10

    1    -0.67772137741609    -0.72975026760018     0.81011155629267     0.00000000000000     0.00000000000000
    2    -0.72975026760018    -0.83549450576911     0.36152671367317     0.00000000000000     0.00000000000000
    3    -0.81011155629267    -0.36152671367317     0.78535897658410     0.00000000000000     0.00000000000000
    4     0.00000000000000     0.00000000000000     0.00000000000000    -0.39543532921353     0.00000000000000
    5     0.00000000000000     0.00000000000000     0.00000000000000     0.00000000000000    -0.39543532921353
    6    -1.90292357760548    -0.99791092370337     0.16998647827047     0.00000000000000     0.00000000000000
    7    -0.99791092370337    -0.98770528048000     0.14731984590992     0.00000000000000     0.00000000000000
    8     0.16998647827047     0.14731984590992    -1.52835088813008     0.00000000000000     0.00000000000000
    9     0.00000000000000     0.00000000000000     0.00000000000000    -1.38542116711783     0.00000000000000
   10     0.00000000000000     0.00000000000000     0.00000000000000     0.00000000000000    -1.38542116711783



  ## One Electron Ints (Symmetry 0) ##
  Irrep: 1 Size: 10 x 10

                 1                   2                   3                   4                   5

    1    -0.93346635049306    -0.79667679263798    -0.16998647827047     0.00000000000000     0.00000000000000
    2    -0.79667679263798    -0.80470528048000    -0.14731984590992     0.00000000000000     0.00000000000000
    3    -0.16998647827047    -0.14731984590992     0.28914911186992     0.00000000000000     0.00000000000000
    4     0.00000000000000     0.00000000000000     0.00000000000000     0.43207883288217     0.00000000000000
    5     0.00000000000000     0.00000000000000     0.00000000000000     0.00000000000000     0.43207883288217
    6    -0.57997956262604    -0.62118421450162    -0.46839413797890     0.00000000000000     0.00000000000000
    7    -0.62118421450162    -0.70968911718406    -0.27825391460863     0.00000000000000     0.00000000000000
    8     0.46839413797890     0.27825391460863    -0.11084314091055     0.00000000000000     0.00000000000000
    9     0.00000000000000     0.00000000000000     0.00000000000000    -0.15684142692542     0.00000000000000
   10     0.00000000000000     0.00000000000000     0.00000000000000     0.00000000000000    -0.15684142692542

                 6                   7                   8                   9                  10

    1    -0.57997956262604    -0.62118421450162     0.46839413797890     0.00000000000000     0.00000000000000
    2    -0.62118421450162    -0.70968911718406     0.27825391460863     0.00000000000000     0.00000000000000
    3    -0.46839413797890    -0.27825391460863    -0.11084314091055     0.00000000000000     0.00000000000000
    4     0.00000000000000     0.00000000000000     0.00000000000000    -0.15684142692542     0.00000000000000
    5     0.00000000000000     0.00000000000000     0.00000000000000     0.00000000000000    -0.15684142692542
    6    -0.93346635049306    -0.79667679263798     0.16998647827047     0.00000000000000     0.00000000000000
    7    -0.79667679263798    -0.80470528048000     0.14731984590992     0.00000000000000     0.00000000000000
    8     0.16998647827047     0.14731984590992     0.28914911186992     0.00000000000000     0.00000000000000
    9     0.00000000000000     0.00000000000000     0.00000000000000     0.43207883288217     0.00000000000000
   10     0.00000000000000     0.00000000000000     0.00000000000000     0.00000000000000     0.43207883288217




	There are 0 unique integrals

  ## Fock (Symmetry 0) ##
  Irrep: 1 Size: 10 x 10

                 1                   2                   3                   4                   5

    1    -0.43054264741967    -0.28509905242769     0.17686432052934    -0.00000000000000     0.00000000000000
    2    -0.28509905242769    -0.34367883467407     0.18370587079159     0.00000000000000     0.00000000000000
    3     0.17686432052934     0.18370587079159     0.84400657280960     0.00000000000000     0.00000000000000
    4    -0.00000000000000     0.00000000000000     0.00000000000000     0.51316635125641     0.00000000000000
    5     0.00000000000000     0.00000000000000     0.00000000000000     0.00000000000000     0.51316635125641
    6    -0.29342708925155    -0.14648070966619    -0.59649895210365    -0.00000000000000     0.00000000000000
    7    -0.14648070966619    -0.15282016697806    -0.17832428426877    -0.00000000000000     0.00000000000000
    8     0.59649895210365     0.17832428426877     0.40657750617490    -0.00000000000000     0.00000000000000
    9     0.00000000000000    -0.00000000000000     0.00000000000000    -0.29696405981887     0.00000000000000
   10     0.00000000000000     0.00000000000000     0.00000000000000     0.00000000000000    -0.29696405981887

                 6                   7                   8                   9                  10

    1    -0.29342708925155    -0.14648070966619     0.59649895210365     0.00000000000000     0.00000000000000
    2    -0.14648070966619    -0.15282016697806     0.17832428426877    -0.00000000000000     0.00000000000000
    3    -0.59649895210365    -0.17832428426877     0.40657750617490     0.00000000000000     0.00000000000000
    4    -0.00000000000000    -0.00000000000000    -0.00000000000000    -0.29696405981887     0.00000000000000
    5     0.00000000000000     0.00000000000000     0.00000000000000     0.00000000000000    -0.29696405981887
    6    -0.43054264741967    -0.28509905242769    -0.17686432052934    -0.00000000000000     0.00000000000000
    7    -0.28509905242769    -0.34367883467407    -0.18370587079159     0.00000000000000     0.00000000000000
    8    -0.17686432052934    -0.18370587079159     0.84400657280960    -0.00000000000000     0.00000000000000
    9    -0.00000000000000     0.00000000000000    -0.00000000000000     0.51316635125641     0.00000000000000
   10     0.00000000000000     0.00000000000000     0.00000000000000     0.00000000000000     0.51316635125641



  ## C (Symmetry 0) ##
  Irrep: 1 Size: 10 x 10

                 1                   2                   3                   4                   5

    1     0.68263929699380     0.26661590720746     0.43591547625145     0.29685504168856     0.17887034302309
    2     0.59573914705923     0.51012386624549     0.02462124584648     0.11873139363167     0.02968723663251
    3     0.66993148122695    -0.59554516402868     0.37482354785975     0.34041662079756     0.29685504168856
    4     0.39870852091520    -0.60531604663456    -0.06812613693123     0.00000000000000     0.10132029201900
    5    -0.03900338945248    -0.01530819850937    -0.09225072489921    -0.72802278226499     0.00000000000000
    6    -0.41986222349906     0.17579133813765     0.18507772280031    -0.17316369903828    -1.05265293992586
    7    -0.09307110602611    -0.44897973471862    -1.04011706361368    -0.15007526932053     0.32378850105955
    8     0.44013472205613    -0.03285978120454     0.25777494777417     0.95599401024714     0.17316369903828
    9    -0.05548901044540     0.08424296615827     0.00948124187340    -0.00000000000000    -0.72802278226499
   10     0.28025339782516     0.10999491857138     0.66285467667716     0.10132029201900     0.00000000000000

                 6                   7                   8                   9                  10

    1     1.16371604964261     0.61284870405156    -0.17506306180233    -0.29685504168856     0.17887034302309
    2    -1.41116125296157    -0.93425010248374    -1.11281520246965    -0.11873139363167     0.02968723663251
    3     0.44695344778425    -0.75602331585910    -0.49572807727713    -0.34041662079756     0.29685504168856
    4    -0.39870852091520     0.60531604663456    -0.06812613693123    -0.00000000000000    -0.10132029201900
    5     0.03900338945248     0.01530819850937    -0.09225072489921    -0.72802278226499     0.00000000000000
    6    -0.37575367934894     0.20753642771375    -0.16116091498110     0.17316369903828    -1.05265293992586
    7     0.85512545480709     0.23344099213552     1.55425407169783     0.15007526932053     0.32378850105955
    8     0.26372662510741    -0.15982136988287    -0.35342803798084    -0.95599401024714     0.17316369903828
    9     0.05548901044540    -0.08424296615827     0.00948124187340     0.00000000000000     0.72802278226499
   10    -0.28025339782516    -0.10999491857138     0.66285467667716     0.10132029201900     0.00000000000000




 In Bisection function HOMO = -1.129  LUMO =  1.638

 0.25435 = (-1.12894 + 1.63764)/2.0
 sum -  nocc_ = 4.28998358
 On Iteration in Bisection 0
 a: 4.28998  b:-0.49943

 -0.43730 = (-1.12894 + 0.25435)/2.0
 sum -  nocc_ = 1.01909072
 On Iteration in Bisection 1
 a: 1.01909  b:-0.49943

 -0.78312 = (-1.12894 + -0.43730)/2.0
 sum -  nocc_ = 0.11479432
 On Iteration in Bisection 2
 a: 0.11479  b:-0.49943

 -0.95603 = (-1.12894 + -0.78312)/2.0
 sum -  nocc_ = -0.05248478
 On Iteration in Bisection 3
 a: -0.05248  b:-0.49943

 -0.86958 = (-0.95603 + -0.78312)/2.0
 sum -  nocc_ = 0.01696096
 On Iteration in Bisection 4
 a: 0.01696  b:-0.05248

 -0.91281 = (-0.95603 + -0.86958)/2.0
 sum -  nocc_ = -0.01477045
 On Iteration in Bisection 5
 a: -0.01477  b:-0.05248

 -0.89119 = (-0.91281 + -0.86958)/2.0
 sum -  nocc_ = 0.00104232
 On Iteration in Bisection 6
 a: 0.00104  b:-0.01477

 -0.90200 = (-0.91281 + -0.89119)/2.0
 sum -  nocc_ = -0.00677901
 On Iteration in Bisection 7
 a: -0.00678  b:-0.01477

 -0.89659 = (-0.90200 + -0.89119)/2.0
 sum -  nocc_ = -0.00285938
 On Iteration in Bisection 8
 a: -0.00286  b:-0.00678

 -0.89389 = (-0.89659 + -0.89119)/2.0
 sum -  nocc_ = -0.00090782
 On Iteration in Bisection 9
 a: -0.00091  b:-0.00286

 -0.89254 = (-0.89389 + -0.89119)/2.0
 sum -  nocc_ = 0.00006724
 On Iteration in Bisection 10
 a: 0.00007  b:-0.00091

 -0.89322 = (-0.89389 + -0.89254)/2.0
 sum -  nocc_ = -0.00042027
 On Iteration in Bisection 11
 a: -0.00042  b:-0.00091

 -0.89288 = (-0.89322 + -0.89254)/2.0
 sum -  nocc_ = -0.00017652
 On Iteration in Bisection 12
 a: -0.00018  b:-0.00042

 -0.89271 = (-0.89288 + -0.89254)/2.0
 sum -  nocc_ = -0.00005464
 On Iteration in Bisection 13
 a: -0.00005  b:-0.00018

 -0.89263 = (-0.89271 + -0.89254)/2.0
 sum -  nocc_ = 0.00000630
 On Iteration in Bisection 14
 a: 0.00001  b:-0.00005

 -0.89267 = (-0.89271 + -0.89263)/2.0
 sum -  nocc_ = -0.00002417
 On Iteration in Bisection 15
 a: -0.00002  b:-0.00005

 -0.89265 = (-0.89267 + -0.89263)/2.0
 sum -  nocc_ = -0.00000894
 On Iteration in Bisection 16
 a: -0.00001  b:-0.00002

 -0.89264 = (-0.89265 + -0.89263)/2.0
 sum -  nocc_ = -0.00000132
 On Iteration in Bisection 17
 a: -0.00000  b:-0.00001

 -0.89263 = (-0.89264 + -0.89263)/2.0
 sum -  nocc_ = 0.00000249
 On Iteration in Bisection 18
 a: 0.00000  b:-0.00000

 -0.89263 = (-0.89264 + -0.89263)/2.0
 sum -  nocc_ = 0.00000058
 On Iteration in Bisection 19
 a: 0.00000  b:-0.00000

 -0.89264 = (-0.89264 + -0.89263)/2.0
 sum -  nocc_ = -0.00000037
 On Iteration in Bisection 20
 a: -0.00000  b:-0.00000

 -0.89264 = (-0.89264 + -0.89263)/2.0
 sum -  nocc_ = 0.00000011
 On Iteration in Bisection 21
 a: 0.00000  b:-0.00000

 -0.89264 = (-0.89264 + -0.89264)/2.0
 sum -  nocc_ = -0.00000013
 On Iteration in Bisection 22
 a: -0.00000  b:-0.00000

 -0.89264 = (-0.89264 + -0.89264)/2.0
 sum -  nocc_ = -0.00000001
 On Iteration in Bisection 23
 a: -0.00000  b:-0.00000

 -0.89264 = (-0.89264 + -0.89264)/2.0
 sum -  nocc_ = 0.00000005
 On Iteration in Bisection 24
 a: 0.00000  b:-0.00000

 -0.89264 = (-0.89264 + -0.89264)/2.0
 sum -  nocc_ = 0.00000002
 On Iteration in Bisection 25
 a: 0.00000  b:-0.00000

 -0.89264 = (-0.89264 + -0.89264)/2.0
 sum -  nocc_ = 0.00000000
 ef = -0.89264 sum = 1.00000 

 Iter: 0  T:    20000.000  val:-0.892635  sumni 0.00000
 ne = 1.0000

Nuc Replusion =       0.529177208590
 1st iteration =      -0.363034390377
 In Bisection function HOMO = -0.286  LUMO =  2.642

 1.17810 = (-0.28561 + 2.64182)/2.0
 sum -  nocc_ = 3.49341429
 On Iteration in Bisection 0
 a: 3.49341  b:-0.49863

 0.44625 = (-0.28561 + 1.17810)/2.0
 sum -  nocc_ = 1.18133217
 On Iteration in Bisection 1
 a: 1.18133  b:-0.49863

 0.08032 = (-0.28561 + 0.44625)/2.0
 sum -  nocc_ = 0.30391127
 On Iteration in Bisection 2
 a: 0.30391  b:-0.49863

 -0.10264 = (-0.28561 + 0.08032)/2.0
 sum -  nocc_ = -0.02868859
 On Iteration in Bisection 3
 a: -0.02869  b:-0.49863

 -0.01116 = (-0.10264 + 0.08032)/2.0
 sum -  nocc_ = 0.08153335
 On Iteration in Bisection 4
 a: 0.08153  b:-0.02869

 -0.05690 = (-0.10264 + -0.01116)/2.0
 sum -  nocc_ = 0.02191489
 On Iteration in Bisection 5
 a: 0.02191  b:-0.02869

 -0.07977 = (-0.10264 + -0.05690)/2.0
 sum -  nocc_ = -0.00322077
 On Iteration in Bisection 6
 a: -0.00322  b:-0.02869

 -0.06834 = (-0.07977 + -0.05690)/2.0
 sum -  nocc_ = 0.00922762
 On Iteration in Bisection 7
 a: 0.00923  b:-0.00322

 -0.07405 = (-0.07977 + -0.06834)/2.0
 sum -  nocc_ = 0.00299369
 On Iteration in Bisection 8
 a: 0.00299  b:-0.00322

 -0.07691 = (-0.07977 + -0.07405)/2.0
 sum -  nocc_ = -0.00011346
 On Iteration in Bisection 9
 a: -0.00011  b:-0.00322

 -0.07548 = (-0.07691 + -0.07405)/2.0
 sum -  nocc_ = 0.00143982
 On Iteration in Bisection 10
 a: 0.00144  b:-0.00011

 -0.07620 = (-0.07691 + -0.07548)/2.0
 sum -  nocc_ = 0.00066314
 On Iteration in Bisection 11
 a: 0.00066  b:-0.00011

 -0.07656 = (-0.07691 + -0.07620)/2.0
 sum -  nocc_ = 0.00027484
 On Iteration in Bisection 12
 a: 0.00027  b:-0.00011

 -0.07673 = (-0.07691 + -0.07656)/2.0
 sum -  nocc_ = 0.00008069
 On Iteration in Bisection 13
 a: 0.00008  b:-0.00011

 -0.07682 = (-0.07691 + -0.07673)/2.0
 sum -  nocc_ = -0.00001639
 On Iteration in Bisection 14
 a: -0.00002  b:-0.00011

 -0.07678 = (-0.07682 + -0.07673)/2.0
 sum -  nocc_ = 0.00003215
 On Iteration in Bisection 15
 a: 0.00003  b:-0.00002

 -0.07680 = (-0.07682 + -0.07678)/2.0
 sum -  nocc_ = 0.00000788
 On Iteration in Bisection 16
 a: 0.00001  b:-0.00002

 -0.07681 = (-0.07682 + -0.07680)/2.0
 sum -  nocc_ = -0.00000425
 On Iteration in Bisection 17
 a: -0.00000  b:-0.00002

 -0.07681 = (-0.07681 + -0.07680)/2.0
 sum -  nocc_ = 0.00000181
 On Iteration in Bisection 18
 a: 0.00000  b:-0.00000

 -0.07681 = (-0.07681 + -0.07681)/2.0
 sum -  nocc_ = -0.00000122
 On Iteration in Bisection 19
 a: -0.00000  b:-0.00000

 -0.07681 = (-0.07681 + -0.07681)/2.0
 sum -  nocc_ = 0.00000030
 On Iteration in Bisection 20
 a: 0.00000  b:-0.00000

 -0.07681 = (-0.07681 + -0.07681)/2.0
 sum -  nocc_ = -0.00000046
 On Iteration in Bisection 21
 a: -0.00000  b:-0.00000

 -0.07681 = (-0.07681 + -0.07681)/2.0
 sum -  nocc_ = -0.00000008
 On Iteration in Bisection 22
 a: -0.00000  b:-0.00000

 -0.07681 = (-0.07681 + -0.07681)/2.0
 sum -  nocc_ = 0.00000011
 On Iteration in Bisection 23
 a: 0.00000  b:-0.00000

 -0.07681 = (-0.07681 + -0.07681)/2.0
 sum -  nocc_ = 0.00000001
 On Iteration in Bisection 24
 a: 0.00000  b:-0.00000

 -0.07681 = (-0.07681 + -0.07681)/2.0
 sum -  nocc_ = -0.00000004
 On Iteration in Bisection 25
 a: -0.00000  b:-0.00000

 -0.07681 = (-0.07681 + -0.07681)/2.0
 sum -  nocc_ = -0.00000001
 On Iteration in Bisection 26
 a: -0.00000  b:-0.00000

 -0.07681 = (-0.07681 + -0.07681)/2.0
 sum -  nocc_ = 0.00000000
 ef = -0.07681 sum = 1.00000 

 Iter: 0  T:    20000.000  val:-0.076808  sumni 0.00000
 ne = 1.0000

 iter:1  failiter:1  energy:     -1.318645723772  total:     -0.789468515182  error:     -0.218491959685
 In Bisection function HOMO = -0.537  LUMO =  2.684

 1.07315 = (-0.53724 + 2.68355)/2.0
 sum -  nocc_ = 3.12700792
 On Iteration in Bisection 0
 a: 3.12701  b:-0.49997

 0.26795 = (-0.53724 + 1.07315)/2.0
 sum -  nocc_ = 0.93918594
 On Iteration in Bisection 1
 a: 0.93919  b:-0.49997

 -0.13465 = (-0.53724 + 0.26795)/2.0
 sum -  nocc_ = 0.01787710
 On Iteration in Bisection 2
 a: 0.01788  b:-0.49997

 -0.33595 = (-0.53724 + -0.13465)/2.0
 sum -  nocc_ = -0.03915216
 On Iteration in Bisection 3
 a: -0.03915  b:-0.49997

 -0.23530 = (-0.33595 + -0.13465)/2.0
 sum -  nocc_ = -0.00436332
 On Iteration in Bisection 4
 a: -0.00436  b:-0.03915

 -0.18497 = (-0.23530 + -0.13465)/2.0
 sum -  nocc_ = 0.00512908
 On Iteration in Bisection 5
 a: 0.00513  b:-0.00436

 -0.21013 = (-0.23530 + -0.18497)/2.0
 sum -  nocc_ = 0.00035547
 On Iteration in Bisection 6
 a: 0.00036  b:-0.00436

 -0.22271 = (-0.23530 + -0.21013)/2.0
 sum -  nocc_ = -0.00196640
 On Iteration in Bisection 7
 a: -0.00197  b:-0.00436

 -0.21642 = (-0.22271 + -0.21013)/2.0
 sum -  nocc_ = -0.00080165
 On Iteration in Bisection 8
 a: -0.00080  b:-0.00197

 -0.21328 = (-0.21642 + -0.21013)/2.0
 sum -  nocc_ = -0.00022283
 On Iteration in Bisection 9
 a: -0.00022  b:-0.00080

 -0.21171 = (-0.21328 + -0.21013)/2.0
 sum -  nocc_ = 0.00006630
 On Iteration in Bisection 10
 a: 0.00007  b:-0.00022

 -0.21249 = (-0.21328 + -0.21171)/2.0
 sum -  nocc_ = -0.00007826
 On Iteration in Bisection 11
 a: -0.00008  b:-0.00022

 -0.21210 = (-0.21249 + -0.21171)/2.0
 sum -  nocc_ = -0.00000598
 On Iteration in Bisection 12
 a: -0.00001  b:-0.00008

 -0.21190 = (-0.21210 + -0.21171)/2.0
 sum -  nocc_ = 0.00003016
 On Iteration in Bisection 13
 a: 0.00003  b:-0.00001

 -0.21200 = (-0.21210 + -0.21190)/2.0
 sum -  nocc_ = 0.00001209
 On Iteration in Bisection 14
 a: 0.00001  b:-0.00001

 -0.21205 = (-0.21210 + -0.21200)/2.0
 sum -  nocc_ = 0.00000306
 On Iteration in Bisection 15
 a: 0.00000  b:-0.00001

 -0.21207 = (-0.21210 + -0.21205)/2.0
 sum -  nocc_ = -0.00000146
 On Iteration in Bisection 16
 a: -0.00000  b:-0.00001

 -0.21206 = (-0.21207 + -0.21205)/2.0
 sum -  nocc_ = 0.00000080
 On Iteration in Bisection 17
 a: 0.00000  b:-0.00000

 -0.21207 = (-0.21207 + -0.21206)/2.0
 sum -  nocc_ = -0.00000033
 On Iteration in Bisection 18
 a: -0.00000  b:-0.00000

 -0.21206 = (-0.21207 + -0.21206)/2.0
 sum -  nocc_ = 0.00000023
 On Iteration in Bisection 19
 a: 0.00000  b:-0.00000

 -0.21207 = (-0.21207 + -0.21206)/2.0
 sum -  nocc_ = -0.00000005
 On Iteration in Bisection 20
 a: -0.00000  b:-0.00000

 -0.21207 = (-0.21207 + -0.21206)/2.0
 sum -  nocc_ = 0.00000009
 On Iteration in Bisection 21
 a: 0.00000  b:-0.00000

 -0.21207 = (-0.21207 + -0.21207)/2.0
 sum -  nocc_ = 0.00000002
 On Iteration in Bisection 22
 a: 0.00000  b:-0.00000

 -0.21207 = (-0.21207 + -0.21207)/2.0
 sum -  nocc_ = -0.00000001
 On Iteration in Bisection 23
 a: -0.00000  b:-0.00000

 -0.21207 = (-0.21207 + -0.21207)/2.0
 sum -  nocc_ = 0.00000000
 ef = -0.21207 sum = 1.00000 

 Iter: 1  T:    20000.000  val:-0.212066  sumni 0.00000
 ne = 1.0000

 iter:2  failiter:2  energy:     -1.630777833160  total:     -1.101600624570  error:     -0.312132109387
 In Bisection function HOMO = -0.528  LUMO =  2.727

 1.09967 = (-0.52757 + 2.72690)/2.0
 sum -  nocc_ = 3.10304142
 On Iteration in Bisection 0
 a: 3.10304  b:-0.49997

 0.28605 = (-0.52757 + 1.09967)/2.0
 sum -  nocc_ = 0.93036746
 On Iteration in Bisection 1
 a: 0.93037  b:-0.49997

 -0.12076 = (-0.52757 + 0.28605)/2.0
 sum -  nocc_ = 0.01479603
 On Iteration in Bisection 2
 a: 0.01480  b:-0.49997

 -0.32416 = (-0.52757 + -0.12076)/2.0
 sum -  nocc_ = -0.03805614
 On Iteration in Bisection 3
 a: -0.03806  b:-0.49997

 -0.22246 = (-0.32416 + -0.12076)/2.0
 sum -  nocc_ = -0.00468303
 On Iteration in Bisection 4
 a: -0.00468  b:-0.03806

 -0.17161 = (-0.22246 + -0.12076)/2.0
 sum -  nocc_ = 0.00381201
 On Iteration in Bisection 5
 a: 0.00381  b:-0.00468

 -0.19704 = (-0.22246 + -0.17161)/2.0
 sum -  nocc_ = -0.00040364
 On Iteration in Bisection 6
 a: -0.00040  b:-0.00468

 -0.18432 = (-0.19704 + -0.17161)/2.0
 sum -  nocc_ = 0.00167146
 On Iteration in Bisection 7
 a: 0.00167  b:-0.00040

 -0.19068 = (-0.19704 + -0.18432)/2.0
 sum -  nocc_ = 0.00063082
 On Iteration in Bisection 8
 a: 0.00063  b:-0.00040

 -0.19386 = (-0.19704 + -0.19068)/2.0
 sum -  nocc_ = 0.00011345
 On Iteration in Bisection 9
 a: 0.00011  b:-0.00040

 -0.19545 = (-0.19704 + -0.19386)/2.0
 sum -  nocc_ = -0.00014505
 On Iteration in Bisection 10
 a: -0.00015  b:-0.00040

 -0.19465 = (-0.19545 + -0.19386)/2.0
 sum -  nocc_ = -0.00001580
 On Iteration in Bisection 11
 a: -0.00002  b:-0.00015

 -0.19426 = (-0.19465 + -0.19386)/2.0
 sum -  nocc_ = 0.00004883
 On Iteration in Bisection 12
 a: 0.00005  b:-0.00002

 -0.19445 = (-0.19465 + -0.19426)/2.0
 sum -  nocc_ = 0.00001651
 On Iteration in Bisection 13
 a: 0.00002  b:-0.00002

 -0.19455 = (-0.19465 + -0.19445)/2.0
 sum -  nocc_ = 0.00000036
 On Iteration in Bisection 14
 a: 0.00000  b:-0.00002

 -0.19460 = (-0.19465 + -0.19455)/2.0
 sum -  nocc_ = -0.00000772
 On Iteration in Bisection 15
 a: -0.00001  b:-0.00002

 -0.19458 = (-0.19460 + -0.19455)/2.0
 sum -  nocc_ = -0.00000368
 On Iteration in Bisection 16
 a: -0.00000  b:-0.00001

 -0.19457 = (-0.19458 + -0.19455)/2.0
 sum -  nocc_ = -0.00000166
 On Iteration in Bisection 17
 a: -0.00000  b:-0.00000

 -0.19456 = (-0.19457 + -0.19455)/2.0
 sum -  nocc_ = -0.00000065
 On Iteration in Bisection 18
 a: -0.00000  b:-0.00000

 -0.19456 = (-0.19456 + -0.19455)/2.0
 sum -  nocc_ = -0.00000015
 On Iteration in Bisection 19
 a: -0.00000  b:-0.00000

 -0.19456 = (-0.19456 + -0.19455)/2.0
 sum -  nocc_ = 0.00000011
 On Iteration in Bisection 20
 a: 0.00000  b:-0.00000

 -0.19456 = (-0.19456 + -0.19456)/2.0
 sum -  nocc_ = -0.00000002
 On Iteration in Bisection 21
 a: -0.00000  b:-0.00000

 -0.19456 = (-0.19456 + -0.19456)/2.0
 sum -  nocc_ = 0.00000004
 On Iteration in Bisection 22
 a: 0.00000  b:-0.00000

 -0.19456 = (-0.19456 + -0.19456)/2.0
 sum -  nocc_ = 0.00000001
 On Iteration in Bisection 23
 a: 0.00000  b:-0.00000

 -0.19456 = (-0.19456 + -0.19456)/2.0
 sum -  nocc_ = -0.00000001
 ef = -0.19456 sum = 1.00000 

 Iter: 2  T:    20000.000  val:-0.194556  sumni 0.00000
 ne = 1.0000

 iter:3  failiter:3  energy:     -1.625048512652  total:     -1.095871304062  error:      0.005729320508
 In Bisection function HOMO = -0.525  LUMO =  2.733

 1.10389 = (-0.52492 + 2.73270)/2.0
 sum -  nocc_ = 3.10166932
 On Iteration in Bisection 0
 a: 3.10167  b:-0.49997

 0.28949 = (-0.52492 + 1.10389)/2.0
 sum -  nocc_ = 0.93186754
 On Iteration in Bisection 1
 a: 0.93187  b:-0.49997

 -0.11772 = (-0.52492 + 0.28949)/2.0
 sum -  nocc_ = 0.01491595
 On Iteration in Bisection 2
 a: 0.01492  b:-0.49997

 -0.32132 = (-0.52492 + -0.11772)/2.0
 sum -  nocc_ = -0.03793827
 On Iteration in Bisection 3
 a: -0.03794  b:-0.49997

 -0.21952 = (-0.32132 + -0.11772)/2.0
 sum -  nocc_ = -0.00462861
 On Iteration in Bisection 4
 a: -0.00463  b:-0.03794

 -0.16862 = (-0.21952 + -0.11772)/2.0
 sum -  nocc_ = 0.00387589
 On Iteration in Bisection 5
 a: 0.00388  b:-0.00463

 -0.19407 = (-0.21952 + -0.16862)/2.0
 sum -  nocc_ = -0.00034878
 On Iteration in Bisection 6
 a: -0.00035  b:-0.00463

 -0.18134 = (-0.19407 + -0.16862)/2.0
 sum -  nocc_ = 0.00172963
 On Iteration in Bisection 7
 a: 0.00173  b:-0.00035

 -0.18770 = (-0.19407 + -0.18134)/2.0
 sum -  nocc_ = 0.00068706
 On Iteration in Bisection 8
 a: 0.00069  b:-0.00035

 -0.19089 = (-0.19407 + -0.18770)/2.0
 sum -  nocc_ = 0.00016894
 On Iteration in Bisection 9
 a: 0.00017  b:-0.00035

 -0.19248 = (-0.19407 + -0.19089)/2.0
 sum -  nocc_ = -0.00008989
 On Iteration in Bisection 10
 a: -0.00009  b:-0.00035

 -0.19168 = (-0.19248 + -0.19089)/2.0
 sum -  nocc_ = 0.00003952
 On Iteration in Bisection 11
 a: 0.00004  b:-0.00009

 -0.19208 = (-0.19248 + -0.19168)/2.0
 sum -  nocc_ = -0.00002519
 On Iteration in Bisection 12
 a: -0.00003  b:-0.00009

 -0.19188 = (-0.19208 + -0.19168)/2.0
 sum -  nocc_ = 0.00000717
 On Iteration in Bisection 13
 a: 0.00001  b:-0.00003

 -0.19198 = (-0.19208 + -0.19188)/2.0
 sum -  nocc_ = -0.00000901
 On Iteration in Bisection 14
 a: -0.00001  b:-0.00003

 -0.19193 = (-0.19198 + -0.19188)/2.0
 sum -  nocc_ = -0.00000092
 On Iteration in Bisection 15
 a: -0.00000  b:-0.00001

 -0.19190 = (-0.19193 + -0.19188)/2.0
 sum -  nocc_ = 0.00000312
 On Iteration in Bisection 16
 a: 0.00000  b:-0.00000

 -0.19192 = (-0.19193 + -0.19190)/2.0
 sum -  nocc_ = 0.00000110
 On Iteration in Bisection 17
 a: 0.00000  b:-0.00000

 -0.19192 = (-0.19193 + -0.19192)/2.0
 sum -  nocc_ = 0.00000009
 On Iteration in Bisection 18
 a: 0.00000  b:-0.00000

 -0.19193 = (-0.19193 + -0.19192)/2.0
 sum -  nocc_ = -0.00000042
 On Iteration in Bisection 19
 a: -0.00000  b:-0.00000

 -0.19192 = (-0.19193 + -0.19192)/2.0
 sum -  nocc_ = -0.00000016
 On Iteration in Bisection 20
 a: -0.00000  b:-0.00000

 -0.19192 = (-0.19192 + -0.19192)/2.0
 sum -  nocc_ = -0.00000004
 On Iteration in Bisection 21
 a: -0.00000  b:-0.00000

 -0.19192 = (-0.19192 + -0.19192)/2.0
 sum -  nocc_ = 0.00000003
 On Iteration in Bisection 22
 a: 0.00000  b:-0.00000

 -0.19192 = (-0.19192 + -0.19192)/2.0
 sum -  nocc_ = -0.00000001
 ef = -0.19192 sum = 1.00000 

 Iter: 3  T:    20000.000  val:-0.191924  sumni 0.00000
 ne = 1.0000

 iter:4  failiter:4  energy:     -1.622935938722  total:     -1.093758730132  error:      0.002112573930
 In Bisection function HOMO = -0.524  LUMO =  2.734

 1.10468 = (-0.52439 + 2.73375)/2.0
 sum -  nocc_ = 3.10148790
 On Iteration in Bisection 0
 a: 3.10149  b:-0.49997

 0.29014 = (-0.52439 + 1.10468)/2.0
 sum -  nocc_ = 0.93224041
 On Iteration in Bisection 1
 a: 0.93224  b:-0.49997

 -0.11712 = (-0.52439 + 0.29014)/2.0
 sum -  nocc_ = 0.01495646
 On Iteration in Bisection 2
 a: 0.01496  b:-0.49997

 -0.32076 = (-0.52439 + -0.11712)/2.0
 sum -  nocc_ = -0.03791794
 On Iteration in Bisection 3
 a: -0.03792  b:-0.49997

 -0.21894 = (-0.32076 + -0.11712)/2.0
 sum -  nocc_ = -0.00461538
 On Iteration in Bisection 4
 a: -0.00462  b:-0.03792

 -0.16803 = (-0.21894 + -0.11712)/2.0
 sum -  nocc_ = 0.00389586
 On Iteration in Bisection 5
 a: 0.00390  b:-0.00462

 -0.19349 = (-0.21894 + -0.16803)/2.0
 sum -  nocc_ = -0.00033338
 On Iteration in Bisection 6
 a: -0.00033  b:-0.00462

 -0.18076 = (-0.19349 + -0.16803)/2.0
 sum -  nocc_ = 0.00174696
 On Iteration in Bisection 7
 a: 0.00175  b:-0.00033

 -0.18712 = (-0.19349 + -0.18076)/2.0
 sum -  nocc_ = 0.00070335
 On Iteration in Bisection 8
 a: 0.00070  b:-0.00033

 -0.19031 = (-0.19349 + -0.18712)/2.0
 sum -  nocc_ = 0.00018476
 On Iteration in Bisection 9
 a: 0.00018  b:-0.00033

 -0.19190 = (-0.19349 + -0.19031)/2.0
 sum -  nocc_ = -0.00007429
 On Iteration in Bisection 10
 a: -0.00007  b:-0.00033

 -0.19110 = (-0.19190 + -0.19031)/2.0
 sum -  nocc_ = 0.00005523
 On Iteration in Bisection 11
 a: 0.00006  b:-0.00007

 -0.19150 = (-0.19190 + -0.19110)/2.0
 sum -  nocc_ = -0.00000953
 On Iteration in Bisection 12
 a: -0.00001  b:-0.00007

 -0.19130 = (-0.19150 + -0.19110)/2.0
 sum -  nocc_ = 0.00002285
 On Iteration in Bisection 13
 a: 0.00002  b:-0.00001

 -0.19140 = (-0.19150 + -0.19130)/2.0
 sum -  nocc_ = 0.00000666
 On Iteration in Bisection 14
 a: 0.00001  b:-0.00001

 -0.19145 = (-0.19150 + -0.19140)/2.0
 sum -  nocc_ = -0.00000144
 On Iteration in Bisection 15
 a: -0.00000  b:-0.00001

 -0.19142 = (-0.19145 + -0.19140)/2.0
 sum -  nocc_ = 0.00000261
 On Iteration in Bisection 16
 a: 0.00000  b:-0.00000

 -0.19144 = (-0.19145 + -0.19142)/2.0
 sum -  nocc_ = 0.00000059
 On Iteration in Bisection 17
 a: 0.00000  b:-0.00000

 -0.19144 = (-0.19145 + -0.19144)/2.0
 sum -  nocc_ = -0.00000042
 On Iteration in Bisection 18
 a: -0.00000  b:-0.00000

 -0.19144 = (-0.19144 + -0.19144)/2.0
 sum -  nocc_ = 0.00000008
 On Iteration in Bisection 19
 a: 0.00000  b:-0.00000

 -0.19144 = (-0.19144 + -0.19144)/2.0
 sum -  nocc_ = -0.00000017
 On Iteration in Bisection 20
 a: -0.00000  b:-0.00000

 -0.19144 = (-0.19144 + -0.19144)/2.0
 sum -  nocc_ = -0.00000005
 On Iteration in Bisection 21
 a: -0.00000  b:-0.00000

 -0.19144 = (-0.19144 + -0.19144)/2.0
 sum -  nocc_ = 0.00000002
 On Iteration in Bisection 22
 a: 0.00000  b:-0.00000

 -0.19144 = (-0.19144 + -0.19144)/2.0
 sum -  nocc_ = -0.00000001
 On Iteration in Bisection 23
 a: -0.00000  b:-0.00000

 -0.19144 = (-0.19144 + -0.19144)/2.0
 sum -  nocc_ = 0.00000000
 ef = -0.19144 sum = 1.00000 

 Iter: 4  T:    20000.000  val:-0.191440  sumni 0.00000
 ne = 1.0000

 iter:5  failiter:5  energy:     -1.622505971309  total:     -1.093328762719  error:      0.000429967413
 In Bisection function HOMO = -0.524  LUMO =  2.734

 1.10483 = (-0.52429 + 2.73395)/2.0
 sum -  nocc_ = 3.10145656
 On Iteration in Bisection 0
 a: 3.10146  b:-0.49997

 0.29027 = (-0.52429 + 1.10483)/2.0
 sum -  nocc_ = 0.93231353
 On Iteration in Bisection 1
 a: 0.93231  b:-0.49997

 -0.11701 = (-0.52429 + 0.29027)/2.0
 sum -  nocc_ = 0.01496458
 On Iteration in Bisection 2
 a: 0.01496  b:-0.49997

 -0.32065 = (-0.52429 + -0.11701)/2.0
 sum -  nocc_ = -0.03791410
 On Iteration in Bisection 3
 a: -0.03791  b:-0.49997

 -0.21883 = (-0.32065 + -0.11701)/2.0
 sum -  nocc_ = -0.00461278
 On Iteration in Bisection 4
 a: -0.00461  b:-0.03791

 -0.16792 = (-0.21883 + -0.11701)/2.0
 sum -  nocc_ = 0.00389985
 On Iteration in Bisection 5
 a: 0.00390  b:-0.00461

 -0.19338 = (-0.21883 + -0.16792)/2.0
 sum -  nocc_ = -0.00033033
 On Iteration in Bisection 6
 a: -0.00033  b:-0.00461

 -0.18065 = (-0.19338 + -0.16792)/2.0
 sum -  nocc_ = 0.00175041
 On Iteration in Bisection 7
 a: 0.00175  b:-0.00033

 -0.18701 = (-0.19338 + -0.18065)/2.0
 sum -  nocc_ = 0.00070658
 On Iteration in Bisection 8
 a: 0.00071  b:-0.00033

 -0.19020 = (-0.19338 + -0.18701)/2.0
 sum -  nocc_ = 0.00018789
 On Iteration in Bisection 9
 a: 0.00019  b:-0.00033

 -0.19179 = (-0.19338 + -0.19020)/2.0
 sum -  nocc_ = -0.00007120
 On Iteration in Bisection 10
 a: -0.00007  b:-0.00033

 -0.19099 = (-0.19179 + -0.19020)/2.0
 sum -  nocc_ = 0.00005834
 On Iteration in Bisection 11
 a: 0.00006  b:-0.00007

 -0.19139 = (-0.19179 + -0.19099)/2.0
 sum -  nocc_ = -0.00000643
 On Iteration in Bisection 12
 a: -0.00001  b:-0.00007

 -0.19119 = (-0.19139 + -0.19099)/2.0
 sum -  nocc_ = 0.00002596
 On Iteration in Bisection 13
 a: 0.00003  b:-0.00001

 -0.19129 = (-0.19139 + -0.19119)/2.0
 sum -  nocc_ = 0.00000977
 On Iteration in Bisection 14
 a: 0.00001  b:-0.00001

 -0.19134 = (-0.19139 + -0.19129)/2.0
 sum -  nocc_ = 0.00000167
 On Iteration in Bisection 15
 a: 0.00000  b:-0.00001

 -0.19136 = (-0.19139 + -0.19134)/2.0
 sum -  nocc_ = -0.00000238
 On Iteration in Bisection 16
 a: -0.00000  b:-0.00001

 -0.19135 = (-0.19136 + -0.19134)/2.0
 sum -  nocc_ = -0.00000036
 On Iteration in Bisection 17
 a: -0.00000  b:-0.00000

 -0.19134 = (-0.19135 + -0.19134)/2.0
 sum -  nocc_ = 0.00000066
 On Iteration in Bisection 18
 a: 0.00000  b:-0.00000

 -0.19135 = (-0.19135 + -0.19134)/2.0
 sum -  nocc_ = 0.00000015
 On Iteration in Bisection 19
 a: 0.00000  b:-0.00000

 -0.19135 = (-0.19135 + -0.19135)/2.0
 sum -  nocc_ = -0.00000010
 On Iteration in Bisection 20
 a: -0.00000  b:-0.00000

 -0.19135 = (-0.19135 + -0.19135)/2.0
 sum -  nocc_ = 0.00000002
 On Iteration in Bisection 21
 a: 0.00000  b:-0.00000

 -0.19135 = (-0.19135 + -0.19135)/2.0
 sum -  nocc_ = -0.00000004
 On Iteration in Bisection 22
 a: -0.00000  b:-0.00000

 -0.19135 = (-0.19135 + -0.19135)/2.0
 sum -  nocc_ = -0.00000001
 ef = -0.19135 sum = 1.00000 

 Iter: 5  T:    20000.000  val:-0.191349  sumni 0.00000
 ne = 1.0000

 iter:6  failiter:6  energy:     -1.622423832605  total:     -1.093246624015  error:      0.000082138704
 In Bisection function HOMO = -0.524  LUMO =  2.734

 1.10486 = (-0.52427 + 2.73398)/2.0
 sum -  nocc_ = 3.10145081
 On Iteration in Bisection 0
 a: 3.10145  b:-0.49997

 0.29029 = (-0.52427 + 1.10486)/2.0
 sum -  nocc_ = 0.93232755
 On Iteration in Bisection 1
 a: 0.93233  b:-0.49997

 -0.11699 = (-0.52427 + 0.29029)/2.0
 sum -  nocc_ = 0.01496614
 On Iteration in Bisection 2
 a: 0.01497  b:-0.49997

 -0.32063 = (-0.52427 + -0.11699)/2.0
 sum -  nocc_ = -0.03791336
 On Iteration in Bisection 3
 a: -0.03791  b:-0.49997

 -0.21881 = (-0.32063 + -0.11699)/2.0
 sum -  nocc_ = -0.00461229
 On Iteration in Bisection 4
 a: -0.00461  b:-0.03791

 -0.16790 = (-0.21881 + -0.11699)/2.0
 sum -  nocc_ = 0.00390061
 On Iteration in Bisection 5
 a: 0.00390  b:-0.00461

 -0.19336 = (-0.21881 + -0.16790)/2.0
 sum -  nocc_ = -0.00032975
 On Iteration in Bisection 6
 a: -0.00033  b:-0.00461

 -0.18063 = (-0.19336 + -0.16790)/2.0
 sum -  nocc_ = 0.00175107
 On Iteration in Bisection 7
 a: 0.00175  b:-0.00033

 -0.18699 = (-0.19336 + -0.18063)/2.0
 sum -  nocc_ = 0.00070720
 On Iteration in Bisection 8
 a: 0.00071  b:-0.00033

 -0.19017 = (-0.19336 + -0.18699)/2.0
 sum -  nocc_ = 0.00018849
 On Iteration in Bisection 9
 a: 0.00019  b:-0.00033

 -0.19177 = (-0.19336 + -0.19017)/2.0
 sum -  nocc_ = -0.00007061
 On Iteration in Bisection 10
 a: -0.00007  b:-0.00033

 -0.19097 = (-0.19177 + -0.19017)/2.0
 sum -  nocc_ = 0.00005894
 On Iteration in Bisection 11
 a: 0.00006  b:-0.00007

 -0.19137 = (-0.19177 + -0.19097)/2.0
 sum -  nocc_ = -0.00000583
 On Iteration in Bisection 12
 a: -0.00001  b:-0.00007

 -0.19117 = (-0.19137 + -0.19097)/2.0
 sum -  nocc_ = 0.00002655
 On Iteration in Bisection 13
 a: 0.00003  b:-0.00001

 -0.19127 = (-0.19137 + -0.19117)/2.0
 sum -  nocc_ = 0.00001036
 On Iteration in Bisection 14
 a: 0.00001  b:-0.00001

 -0.19132 = (-0.19137 + -0.19127)/2.0
 sum -  nocc_ = 0.00000226
 On Iteration in Bisection 15
 a: 0.00000  b:-0.00001

 -0.19134 = (-0.19137 + -0.19132)/2.0
 sum -  nocc_ = -0.00000178
 On Iteration in Bisection 16
 a: -0.00000  b:-0.00001

 -0.19133 = (-0.19134 + -0.19132)/2.0
 sum -  nocc_ = 0.00000024
 On Iteration in Bisection 17
 a: 0.00000  b:-0.00000

 -0.19134 = (-0.19134 + -0.19133)/2.0
 sum -  nocc_ = -0.00000077
 On Iteration in Bisection 18
 a: -0.00000  b:-0.00000

 -0.19133 = (-0.19134 + -0.19133)/2.0
 sum -  nocc_ = -0.00000027
 On Iteration in Bisection 19
 a: -0.00000  b:-0.00000

 -0.19133 = (-0.19133 + -0.19133)/2.0
 sum -  nocc_ = -0.00000001
 On Iteration in Bisection 20
 a: -0.00000  b:-0.00000

 -0.19133 = (-0.19133 + -0.19133)/2.0
 sum -  nocc_ = 0.00000011
 On Iteration in Bisection 21
 a: 0.00000  b:-0.00000

 -0.19133 = (-0.19133 + -0.19133)/2.0
 sum -  nocc_ = 0.00000005
 On Iteration in Bisection 22
 a: 0.00000  b:-0.00000

 -0.19133 = (-0.19133 + -0.19133)/2.0
 sum -  nocc_ = 0.00000002
 On Iteration in Bisection 23
 a: 0.00000  b:-0.00000

 -0.19133 = (-0.19133 + -0.19133)/2.0
 sum -  nocc_ = 0.00000000
 ef = -0.19133 sum = 1.00000 

 Iter: 6  T:    20000.000  val:-0.191331  sumni 0.00000
 ne = 1.0000

 iter:7  failiter:7  energy:     -1.622408198939  total:     -1.093230990349  error:      0.000015633666
 In Bisection function HOMO = -0.524  LUMO =  2.734

 1.10486 = (-0.52427 + 2.73399)/2.0
 sum -  nocc_ = 3.10144973
 On Iteration in Bisection 0
 a: 3.10145  b:-0.49997

 0.29030 = (-0.52427 + 1.10486)/2.0
 sum -  nocc_ = 0.93233024
 On Iteration in Bisection 1
 a: 0.93233  b:-0.49997

 -0.11699 = (-0.52427 + 0.29030)/2.0
 sum -  nocc_ = 0.01496644
 On Iteration in Bisection 2
 a: 0.01497  b:-0.49997

 -0.32063 = (-0.52427 + -0.11699)/2.0
 sum -  nocc_ = -0.03791322
 On Iteration in Bisection 3
 a: -0.03791  b:-0.49997

 -0.21881 = (-0.32063 + -0.11699)/2.0
 sum -  nocc_ = -0.00461219
 On Iteration in Bisection 4
 a: -0.00461  b:-0.03791

 -0.16790 = (-0.21881 + -0.11699)/2.0
 sum -  nocc_ = 0.00390076
 On Iteration in Bisection 5
 a: 0.00390  b:-0.00461

 -0.19335 = (-0.21881 + -0.16790)/2.0
 sum -  nocc_ = -0.00032964
 On Iteration in Bisection 6
 a: -0.00033  b:-0.00461

 -0.18062 = (-0.19335 + -0.16790)/2.0
 sum -  nocc_ = 0.00175120
 On Iteration in Bisection 7
 a: 0.00175  b:-0.00033

 -0.18699 = (-0.19335 + -0.18062)/2.0
 sum -  nocc_ = 0.00070732
 On Iteration in Bisection 8
 a: 0.00071  b:-0.00033

 -0.19017 = (-0.19335 + -0.18699)/2.0
 sum -  nocc_ = 0.00018861
 On Iteration in Bisection 9
 a: 0.00019  b:-0.00033

 -0.19176 = (-0.19335 + -0.19017)/2.0
 sum -  nocc_ = -0.00007049
 On Iteration in Bisection 10
 a: -0.00007  b:-0.00033

 -0.19097 = (-0.19176 + -0.19017)/2.0
 sum -  nocc_ = 0.00005905
 On Iteration in Bisection 11
 a: 0.00006  b:-0.00007

 -0.19136 = (-0.19176 + -0.19097)/2.0
 sum -  nocc_ = -0.00000572
 On Iteration in Bisection 12
 a: -0.00001  b:-0.00007

 -0.19116 = (-0.19136 + -0.19097)/2.0
 sum -  nocc_ = 0.00002667
 On Iteration in Bisection 13
 a: 0.00003  b:-0.00001

 -0.19126 = (-0.19136 + -0.19116)/2.0
 sum -  nocc_ = 0.00001048
 On Iteration in Bisection 14
 a: 0.00001  b:-0.00001

 -0.19131 = (-0.19136 + -0.19126)/2.0
 sum -  nocc_ = 0.00000238
 On Iteration in Bisection 15
 a: 0.00000  b:-0.00001

 -0.19134 = (-0.19136 + -0.19131)/2.0
 sum -  nocc_ = -0.00000167
 On Iteration in Bisection 16
 a: -0.00000  b:-0.00001

 -0.19133 = (-0.19134 + -0.19131)/2.0
 sum -  nocc_ = 0.00000035
 On Iteration in Bisection 17
 a: 0.00000  b:-0.00000

 -0.19133 = (-0.19134 + -0.19133)/2.0
 sum -  nocc_ = -0.00000066
 On Iteration in Bisection 18
 a: -0.00000  b:-0.00000

 -0.19133 = (-0.19133 + -0.19133)/2.0
 sum -  nocc_ = -0.00000015
 On Iteration in Bisection 19
 a: -0.00000  b:-0.00000

 -0.19133 = (-0.19133 + -0.19133)/2.0
 sum -  nocc_ = 0.00000010
 On Iteration in Bisection 20
 a: 0.00000  b:-0.00000

 -0.19133 = (-0.19133 + -0.19133)/2.0
 sum -  nocc_ = -0.00000003
 On Iteration in Bisection 21
 a: -0.00000  b:-0.00000

 -0.19133 = (-0.19133 + -0.19133)/2.0
 sum -  nocc_ = 0.00000004
 On Iteration in Bisection 22
 a: 0.00000  b:-0.00000

 -0.19133 = (-0.19133 + -0.19133)/2.0
 sum -  nocc_ = 0.00000001
 ef = -0.19133 sum = 1.00000 

 Iter: 7  T:    20000.000  val:-0.191328  sumni 0.00000
 ne = 1.0000

 iter:8  failiter:8  energy:     -1.622405201514  total:     -1.093227992924  error:      0.000002997425
 In Bisection function HOMO = -0.524  LUMO =  2.734

 1.10486 = (-0.52427 + 2.73399)/2.0
 sum -  nocc_ = 3.10144953
 On Iteration in Bisection 0
 a: 3.10145  b:-0.49997

 0.29030 = (-0.52427 + 1.10486)/2.0
 sum -  nocc_ = 0.93233076
 On Iteration in Bisection 1
 a: 0.93233  b:-0.49997

 -0.11699 = (-0.52427 + 0.29030)/2.0
 sum -  nocc_ = 0.01496650
 On Iteration in Bisection 2
 a: 0.01497  b:-0.49997

 -0.32063 = (-0.52427 + -0.11699)/2.0
 sum -  nocc_ = -0.03791319
 On Iteration in Bisection 3
 a: -0.03791  b:-0.49997

 -0.21881 = (-0.32063 + -0.11699)/2.0
 sum -  nocc_ = -0.00461217
 On Iteration in Bisection 4
 a: -0.00461  b:-0.03791

 -0.16790 = (-0.21881 + -0.11699)/2.0
 sum -  nocc_ = 0.00390079
 On Iteration in Bisection 5
 a: 0.00390  b:-0.00461

 -0.19335 = (-0.21881 + -0.16790)/2.0
 sum -  nocc_ = -0.00032961
 On Iteration in Bisection 6
 a: -0.00033  b:-0.00461

 -0.18062 = (-0.19335 + -0.16790)/2.0
 sum -  nocc_ = 0.00175122
 On Iteration in Bisection 7
 a: 0.00175  b:-0.00033

 -0.18699 = (-0.19335 + -0.18062)/2.0
 sum -  nocc_ = 0.00070734
 On Iteration in Bisection 8
 a: 0.00071  b:-0.00033

 -0.19017 = (-0.19335 + -0.18699)/2.0
 sum -  nocc_ = 0.00018863
 On Iteration in Bisection 9
 a: 0.00019  b:-0.00033

 -0.19176 = (-0.19335 + -0.19017)/2.0
 sum -  nocc_ = -0.00007047
 On Iteration in Bisection 10
 a: -0.00007  b:-0.00033

 -0.19096 = (-0.19176 + -0.19017)/2.0
 sum -  nocc_ = 0.00005908
 On Iteration in Bisection 11
 a: 0.00006  b:-0.00007

 -0.19136 = (-0.19176 + -0.19096)/2.0
 sum -  nocc_ = -0.00000570
 On Iteration in Bisection 12
 a: -0.00001  b:-0.00007

 -0.19116 = (-0.19136 + -0.19096)/2.0
 sum -  nocc_ = 0.00002669
 On Iteration in Bisection 13
 a: 0.00003  b:-0.00001

 -0.19126 = (-0.19136 + -0.19116)/2.0
 sum -  nocc_ = 0.00001050
 On Iteration in Bisection 14
 a: 0.00001  b:-0.00001

 -0.19131 = (-0.19136 + -0.19126)/2.0
 sum -  nocc_ = 0.00000240
 On Iteration in Bisection 15
 a: 0.00000  b:-0.00001

 -0.19134 = (-0.19136 + -0.19131)/2.0
 sum -  nocc_ = -0.00000165
 On Iteration in Bisection 16
 a: -0.00000  b:-0.00001

 -0.19133 = (-0.19134 + -0.19131)/2.0
 sum -  nocc_ = 0.00000038
 On Iteration in Bisection 17
 a: 0.00000  b:-0.00000

 -0.19133 = (-0.19134 + -0.19133)/2.0
 sum -  nocc_ = -0.00000064
 On Iteration in Bisection 18
 a: -0.00000  b:-0.00000

 -0.19133 = (-0.19133 + -0.19133)/2.0
 sum -  nocc_ = -0.00000013
 On Iteration in Bisection 19
 a: -0.00000  b:-0.00000

 -0.19133 = (-0.19133 + -0.19133)/2.0
 sum -  nocc_ = 0.00000012
 On Iteration in Bisection 20
 a: 0.00000  b:-0.00000

 -0.19133 = (-0.19133 + -0.19133)/2.0
 sum -  nocc_ = -0.00000000
 ef = -0.19133 sum = 1.00000 

 Iter: 8  T:    20000.000  val:-0.191328  sumni 0.00000
 ne = 1.0000

 iter:9  failiter:9  energy:     -1.622404614675  total:     -1.093227406085  error:      0.000000586839
 In Bisection function HOMO = -0.524  LUMO =  2.734

 1.10486 = (-0.52427 + 2.73399)/2.0
 sum -  nocc_ = 3.10144949
 On Iteration in Bisection 0
 a: 3.10145  b:-0.49997

 0.29030 = (-0.52427 + 1.10486)/2.0
 sum -  nocc_ = 0.93233086
 On Iteration in Bisection 1
 a: 0.93233  b:-0.49997

 -0.11699 = (-0.52427 + 0.29030)/2.0
 sum -  nocc_ = 0.01496651
 On Iteration in Bisection 2
 a: 0.01497  b:-0.49997

 -0.32063 = (-0.52427 + -0.11699)/2.0
 sum -  nocc_ = -0.03791319
 On Iteration in Bisection 3
 a: -0.03791  b:-0.49997

 -0.21881 = (-0.32063 + -0.11699)/2.0
 sum -  nocc_ = -0.00461217
 On Iteration in Bisection 4
 a: -0.00461  b:-0.03791

 -0.16790 = (-0.21881 + -0.11699)/2.0
 sum -  nocc_ = 0.00390079
 On Iteration in Bisection 5
 a: 0.00390  b:-0.00461

 -0.19335 = (-0.21881 + -0.16790)/2.0
 sum -  nocc_ = -0.00032961
 On Iteration in Bisection 6
 a: -0.00033  b:-0.00461

 -0.18062 = (-0.19335 + -0.16790)/2.0
 sum -  nocc_ = 0.00175123
 On Iteration in Bisection 7
 a: 0.00175  b:-0.00033

 -0.18699 = (-0.19335 + -0.18062)/2.0
 sum -  nocc_ = 0.00070734
 On Iteration in Bisection 8
 a: 0.00071  b:-0.00033

 -0.19017 = (-0.19335 + -0.18699)/2.0
 sum -  nocc_ = 0.00018864
 On Iteration in Bisection 9
 a: 0.00019  b:-0.00033

 -0.19176 = (-0.19335 + -0.19017)/2.0
 sum -  nocc_ = -0.00007047
 On Iteration in Bisection 10
 a: -0.00007  b:-0.00033

 -0.19096 = (-0.19176 + -0.19017)/2.0
 sum -  nocc_ = 0.00005908
 On Iteration in Bisection 11
 a: 0.00006  b:-0.00007

 -0.19136 = (-0.19176 + -0.19096)/2.0
 sum -  nocc_ = -0.00000569
 On Iteration in Bisection 12
 a: -0.00001  b:-0.00007

 -0.19116 = (-0.19136 + -0.19096)/2.0
 sum -  nocc_ = 0.00002669
 On Iteration in Bisection 13
 a: 0.00003  b:-0.00001

 -0.19126 = (-0.19136 + -0.19116)/2.0
 sum -  nocc_ = 0.00001050
 On Iteration in Bisection 14
 a: 0.00001  b:-0.00001

 -0.19131 = (-0.19136 + -0.19126)/2.0
 sum -  nocc_ = 0.00000240
 On Iteration in Bisection 15
 a: 0.00000  b:-0.00001

 -0.19134 = (-0.19136 + -0.19131)/2.0
 sum -  nocc_ = -0.00000164
 On Iteration in Bisection 16
 a: -0.00000  b:-0.00001

 -0.19133 = (-0.19134 + -0.19131)/2.0
 sum -  nocc_ = 0.00000038
 On Iteration in Bisection 17
 a: 0.00000  b:-0.00000

 -0.19133 = (-0.19134 + -0.19133)/2.0
 sum -  nocc_ = -0.00000063
 On Iteration in Bisection 18
 a: -0.00000  b:-0.00000

 -0.19133 = (-0.19133 + -0.19133)/2.0
 sum -  nocc_ = -0.00000013
 On Iteration in Bisection 19
 a: -0.00000  b:-0.00000

 -0.19133 = (-0.19133 + -0.19133)/2.0
 sum -  nocc_ = 0.00000013
 On Iteration in Bisection 20
 a: 0.00000  b:-0.00000

 -0.19133 = (-0.19133 + -0.19133)/2.0
 sum -  nocc_ = 0.00000000
 ef = -0.19133 sum = 1.00000 

 Iter: 9  T:    20000.000  val:-0.191327  sumni 0.00000
 ne = 1.0000

 iter:10  failiter:10  energy:     -1.622404515060  total:     -1.093227306470  error:      0.000000099615
 In Bisection function HOMO = -0.524  LUMO =  2.734

 1.10486 = (-0.52427 + 2.73399)/2.0
 sum -  nocc_ = 3.10144948
 On Iteration in Bisection 0
 a: 3.10145  b:-0.49997

 0.29030 = (-0.52427 + 1.10486)/2.0
 sum -  nocc_ = 0.93233088
 On Iteration in Bisection 1
 a: 0.93233  b:-0.49997

 -0.11699 = (-0.52427 + 0.29030)/2.0
 sum -  nocc_ = 0.01496651
 On Iteration in Bisection 2
 a: 0.01497  b:-0.49997

 -0.32063 = (-0.52427 + -0.11699)/2.0
 sum -  nocc_ = -0.03791319
 On Iteration in Bisection 3
 a: -0.03791  b:-0.49997

 -0.21881 = (-0.32063 + -0.11699)/2.0
 sum -  nocc_ = -0.00461217
 On Iteration in Bisection 4
 a: -0.00461  b:-0.03791

 -0.16790 = (-0.21881 + -0.11699)/2.0
 sum -  nocc_ = 0.00390079
 On Iteration in Bisection 5
 a: 0.00390  b:-0.00461

 -0.19335 = (-0.21881 + -0.16790)/2.0
 sum -  nocc_ = -0.00032961
 On Iteration in Bisection 6
 a: -0.00033  b:-0.00461

 -0.18062 = (-0.19335 + -0.16790)/2.0
 sum -  nocc_ = 0.00175123
 On Iteration in Bisection 7
 a: 0.00175  b:-0.00033

 -0.18699 = (-0.19335 + -0.18062)/2.0
 sum -  nocc_ = 0.00070735
 On Iteration in Bisection 8
 a: 0.00071  b:-0.00033

 -0.19017 = (-0.19335 + -0.18699)/2.0
 sum -  nocc_ = 0.00018864
 On Iteration in Bisection 9
 a: 0.00019  b:-0.00033

 -0.19176 = (-0.19335 + -0.19017)/2.0
 sum -  nocc_ = -0.00007046
 On Iteration in Bisection 10
 a: -0.00007  b:-0.00033

 -0.19096 = (-0.19176 + -0.19017)/2.0
 sum -  nocc_ = 0.00005908
 On Iteration in Bisection 11
 a: 0.00006  b:-0.00007

 -0.19136 = (-0.19176 + -0.19096)/2.0
 sum -  nocc_ = -0.00000569
 On Iteration in Bisection 12
 a: -0.00001  b:-0.00007

 -0.19116 = (-0.19136 + -0.19096)/2.0
 sum -  nocc_ = 0.00002670
 On Iteration in Bisection 13
 a: 0.00003  b:-0.00001

 -0.19126 = (-0.19136 + -0.19116)/2.0
 sum -  nocc_ = 0.00001050
 On Iteration in Bisection 14
 a: 0.00001  b:-0.00001

 -0.19131 = (-0.19136 + -0.19126)/2.0
 sum -  nocc_ = 0.00000241
 On Iteration in Bisection 15
 a: 0.00000  b:-0.00001

 -0.19134 = (-0.19136 + -0.19131)/2.0
 sum -  nocc_ = -0.00000164
 On Iteration in Bisection 16
 a: -0.00000  b:-0.00001

 -0.19133 = (-0.19134 + -0.19131)/2.0
 sum -  nocc_ = 0.00000038
 On Iteration in Bisection 17
 a: 0.00000  b:-0.00000

 -0.19133 = (-0.19134 + -0.19133)/2.0
 sum -  nocc_ = -0.00000063
 On Iteration in Bisection 18
 a: -0.00000  b:-0.00000

 -0.19133 = (-0.19133 + -0.19133)/2.0
 sum -  nocc_ = -0.00000012
 On Iteration in Bisection 19
 a: -0.00000  b:-0.00000

 -0.19133 = (-0.19133 + -0.19133)/2.0
 sum -  nocc_ = 0.00000013
 On Iteration in Bisection 20
 a: 0.00000  b:-0.00000

 -0.19133 = (-0.19133 + -0.19133)/2.0
 sum -  nocc_ = 0.00000000
 ef = -0.19133 sum = 1.00000 

 Iter: 10  T:    20000.000  val:-0.191327  sumni 0.00000
 ne = 1.0000

 iter:11  failiter:11  energy:     -1.622404491565  total:     -1.093227282975  error:      0.000000023495
 In Bisection function HOMO = -0.524  LUMO =  2.734

 1.10486 = (-0.52427 + 2.73399)/2.0
 sum -  nocc_ = 3.10144948
 On Iteration in Bisection 0
 a: 3.10145  b:-0.49997

 0.29030 = (-0.52427 + 1.10486)/2.0
 sum -  nocc_ = 0.93233088
 On Iteration in Bisection 1
 a: 0.93233  b:-0.49997

 -0.11699 = (-0.52427 + 0.29030)/2.0
 sum -  nocc_ = 0.01496651
 On Iteration in Bisection 2
 a: 0.01497  b:-0.49997

 -0.32063 = (-0.52427 + -0.11699)/2.0
 sum -  nocc_ = -0.03791319
 On Iteration in Bisection 3
 a: -0.03791  b:-0.49997

 -0.21881 = (-0.32063 + -0.11699)/2.0
 sum -  nocc_ = -0.00461217
 On Iteration in Bisection 4
 a: -0.00461  b:-0.03791

 -0.16790 = (-0.21881 + -0.11699)/2.0
 sum -  nocc_ = 0.00390079
 On Iteration in Bisection 5
 a: 0.00390  b:-0.00461

 -0.19335 = (-0.21881 + -0.16790)/2.0
 sum -  nocc_ = -0.00032961
 On Iteration in Bisection 6
 a: -0.00033  b:-0.00461

 -0.18062 = (-0.19335 + -0.16790)/2.0
 sum -  nocc_ = 0.00175123
 On Iteration in Bisection 7
 a: 0.00175  b:-0.00033

 -0.18699 = (-0.19335 + -0.18062)/2.0
 sum -  nocc_ = 0.00070735
 On Iteration in Bisection 8
 a: 0.00071  b:-0.00033

 -0.19017 = (-0.19335 + -0.18699)/2.0
 sum -  nocc_ = 0.00018864
 On Iteration in Bisection 9
 a: 0.00019  b:-0.00033

 -0.19176 = (-0.19335 + -0.19017)/2.0
 sum -  nocc_ = -0.00007046
 On Iteration in Bisection 10
 a: -0.00007  b:-0.00033

 -0.19096 = (-0.19176 + -0.19017)/2.0
 sum -  nocc_ = 0.00005908
 On Iteration in Bisection 11
 a: 0.00006  b:-0.00007

 -0.19136 = (-0.19176 + -0.19096)/2.0
 sum -  nocc_ = -0.00000569
 On Iteration in Bisection 12
 a: -0.00001  b:-0.00007

 -0.19116 = (-0.19136 + -0.19096)/2.0
 sum -  nocc_ = 0.00002670
 On Iteration in Bisection 13
 a: 0.00003  b:-0.00001

 -0.19126 = (-0.19136 + -0.19116)/2.0
 sum -  nocc_ = 0.00001050
 On Iteration in Bisection 14
 a: 0.00001  b:-0.00001

 -0.19131 = (-0.19136 + -0.19126)/2.0
 sum -  nocc_ = 0.00000241
 On Iteration in Bisection 15
 a: 0.00000  b:-0.00001

 -0.19134 = (-0.19136 + -0.19131)/2.0
 sum -  nocc_ = -0.00000164
 On Iteration in Bisection 16
 a: -0.00000  b:-0.00001

 -0.19133 = (-0.19134 + -0.19131)/2.0
 sum -  nocc_ = 0.00000038
 On Iteration in Bisection 17
 a: 0.00000  b:-0.00000

 -0.19133 = (-0.19134 + -0.19133)/2.0
 sum -  nocc_ = -0.00000063
 On Iteration in Bisection 18
 a: -0.00000  b:-0.00000

 -0.19133 = (-0.19133 + -0.19133)/2.0
 sum -  nocc_ = -0.00000012
 On Iteration in Bisection 19
 a: -0.00000  b:-0.00000

 -0.19133 = (-0.19133 + -0.19133)/2.0
 sum -  nocc_ = 0.00000013
 On Iteration in Bisection 20
 a: 0.00000  b:-0.00000

 -0.19133 = (-0.19133 + -0.19133)/2.0
 sum -  nocc_ = 0.00000000
 ef = -0.19133 sum = 1.00000 

 Iter: 11  T:    20000.000  val:-0.191327  sumni 0.00000
 ne = 1.0000

 iter:12  failiter:12  energy:     -1.622404487085  total:     -1.093227278495  error:      0.000000004480
 In Bisection function HOMO = -0.524  LUMO =  2.734

 1.10486 = (-0.52427 + 2.73399)/2.0
 sum -  nocc_ = 3.10144948
 On Iteration in Bisection 0
 a: 3.10145  b:-0.49997

 0.29030 = (-0.52427 + 1.10486)/2.0
 sum -  nocc_ = 0.93233088
 On Iteration in Bisection 1
 a: 0.93233  b:-0.49997

 -0.11699 = (-0.52427 + 0.29030)/2.0
 sum -  nocc_ = 0.01496651
 On Iteration in Bisection 2
 a: 0.01497  b:-0.49997

 -0.32063 = (-0.52427 + -0.11699)/2.0
 sum -  nocc_ = -0.03791319
 On Iteration in Bisection 3
 a: -0.03791  b:-0.49997

 -0.21881 = (-0.32063 + -0.11699)/2.0
 sum -  nocc_ = -0.00461217
 On Iteration in Bisection 4
 a: -0.00461  b:-0.03791

 -0.16790 = (-0.21881 + -0.11699)/2.0
 sum -  nocc_ = 0.00390079
 On Iteration in Bisection 5
 a: 0.00390  b:-0.00461

 -0.19335 = (-0.21881 + -0.16790)/2.0
 sum -  nocc_ = -0.00032961
 On Iteration in Bisection 6
 a: -0.00033  b:-0.00461

 -0.18062 = (-0.19335 + -0.16790)/2.0
 sum -  nocc_ = 0.00175123
 On Iteration in Bisection 7
 a: 0.00175  b:-0.00033

 -0.18699 = (-0.19335 + -0.18062)/2.0
 sum -  nocc_ = 0.00070735
 On Iteration in Bisection 8
 a: 0.00071  b:-0.00033

 -0.19017 = (-0.19335 + -0.18699)/2.0
 sum -  nocc_ = 0.00018864
 On Iteration in Bisection 9
 a: 0.00019  b:-0.00033

 -0.19176 = (-0.19335 + -0.19017)/2.0
 sum -  nocc_ = -0.00007046
 On Iteration in Bisection 10
 a: -0.00007  b:-0.00033

 -0.19096 = (-0.19176 + -0.19017)/2.0
 sum -  nocc_ = 0.00005908
 On Iteration in Bisection 11
 a: 0.00006  b:-0.00007

 -0.19136 = (-0.19176 + -0.19096)/2.0
 sum -  nocc_ = -0.00000569
 On Iteration in Bisection 12
 a: -0.00001  b:-0.00007

 -0.19116 = (-0.19136 + -0.19096)/2.0
 sum -  nocc_ = 0.00002670
 On Iteration in Bisection 13
 a: 0.00003  b:-0.00001

 -0.19126 = (-0.19136 + -0.19116)/2.0
 sum -  nocc_ = 0.00001050
 On Iteration in Bisection 14
 a: 0.00001  b:-0.00001

 -0.19131 = (-0.19136 + -0.19126)/2.0
 sum -  nocc_ = 0.00000241
 On Iteration in Bisection 15
 a: 0.00000  b:-0.00001

 -0.19134 = (-0.19136 + -0.19131)/2.0
 sum -  nocc_ = -0.00000164
 On Iteration in Bisection 16
 a: -0.00000  b:-0.00001

 -0.19133 = (-0.19134 + -0.19131)/2.0
 sum -  nocc_ = 0.00000038
 On Iteration in Bisection 17
 a: 0.00000  b:-0.00000

 -0.19133 = (-0.19134 + -0.19133)/2.0
 sum -  nocc_ = -0.00000063
 On Iteration in Bisection 18
 a: -0.00000  b:-0.00000

 -0.19133 = (-0.19133 + -0.19133)/2.0
 sum -  nocc_ = -0.00000012
 On Iteration in Bisection 19
 a: -0.00000  b:-0.00000

 -0.19133 = (-0.19133 + -0.19133)/2.0
 sum -  nocc_ = 0.00000013
 On Iteration in Bisection 20
 a: 0.00000  b:-0.00000

 -0.19133 = (-0.19133 + -0.19133)/2.0
 sum -  nocc_ = 0.00000000
 ef = -0.19133 sum = 1.00000 

 Iter: 12  T:    20000.000  val:-0.191327  sumni 0.00000
 ne = 1.0000

 iter:13  failiter:13  energy:     -1.622404486242  total:     -1.093227277652  error:      0.000000000843
 In Bisection function HOMO = -0.524  LUMO =  2.734

 1.10486 = (-0.52427 + 2.73399)/2.0
 sum -  nocc_ = 3.10144948
 On Iteration in Bisection 0
 a: 3.10145  b:-0.49997

 0.29030 = (-0.52427 + 1.10486)/2.0
 sum -  nocc_ = 0.93233088
 On Iteration in Bisection 1
 a: 0.93233  b:-0.49997

 -0.11699 = (-0.52427 + 0.29030)/2.0
 sum -  nocc_ = 0.01496651
 On Iteration in Bisection 2
 a: 0.01497  b:-0.49997

 -0.32063 = (-0.52427 + -0.11699)/2.0
 sum -  nocc_ = -0.03791319
 On Iteration in Bisection 3
 a: -0.03791  b:-0.49997

 -0.21881 = (-0.32063 + -0.11699)/2.0
 sum -  nocc_ = -0.00461217
 On Iteration in Bisection 4
 a: -0.00461  b:-0.03791

 -0.16790 = (-0.21881 + -0.11699)/2.0
 sum -  nocc_ = 0.00390079
 On Iteration in Bisection 5
 a: 0.00390  b:-0.00461

 -0.19335 = (-0.21881 + -0.16790)/2.0
 sum -  nocc_ = -0.00032961
 On Iteration in Bisection 6
 a: -0.00033  b:-0.00461

 -0.18062 = (-0.19335 + -0.16790)/2.0
 sum -  nocc_ = 0.00175123
 On Iteration in Bisection 7
 a: 0.00175  b:-0.00033

 -0.18699 = (-0.19335 + -0.18062)/2.0
 sum -  nocc_ = 0.00070735
 On Iteration in Bisection 8
 a: 0.00071  b:-0.00033

 -0.19017 = (-0.19335 + -0.18699)/2.0
 sum -  nocc_ = 0.00018864
 On Iteration in Bisection 9
 a: 0.00019  b:-0.00033

 -0.19176 = (-0.19335 + -0.19017)/2.0
 sum -  nocc_ = -0.00007046
 On Iteration in Bisection 10
 a: -0.00007  b:-0.00033

 -0.19096 = (-0.19176 + -0.19017)/2.0
 sum -  nocc_ = 0.00005908
 On Iteration in Bisection 11
 a: 0.00006  b:-0.00007

 -0.19136 = (-0.19176 + -0.19096)/2.0
 sum -  nocc_ = -0.00000569
 On Iteration in Bisection 12
 a: -0.00001  b:-0.00007

 -0.19116 = (-0.19136 + -0.19096)/2.0
 sum -  nocc_ = 0.00002670
 On Iteration in Bisection 13
 a: 0.00003  b:-0.00001

 -0.19126 = (-0.19136 + -0.19116)/2.0
 sum -  nocc_ = 0.00001050
 On Iteration in Bisection 14
 a: 0.00001  b:-0.00001

 -0.19131 = (-0.19136 + -0.19126)/2.0
 sum -  nocc_ = 0.00000241
 On Iteration in Bisection 15
 a: 0.00000  b:-0.00001

 -0.19134 = (-0.19136 + -0.19131)/2.0
 sum -  nocc_ = -0.00000164
 On Iteration in Bisection 16
 a: -0.00000  b:-0.00001

 -0.19133 = (-0.19134 + -0.19131)/2.0
 sum -  nocc_ = 0.00000038
 On Iteration in Bisection 17
 a: 0.00000  b:-0.00000

 -0.19133 = (-0.19134 + -0.19133)/2.0
 sum -  nocc_ = -0.00000063
 On Iteration in Bisection 18
 a: -0.00000  b:-0.00000

 -0.19133 = (-0.19133 + -0.19133)/2.0
 sum -  nocc_ = -0.00000012
 On Iteration in Bisection 19
 a: -0.00000  b:-0.00000

 -0.19133 = (-0.19133 + -0.19133)/2.0
 sum -  nocc_ = 0.00000013
 On Iteration in Bisection 20
 a: 0.00000  b:-0.00000

 -0.19133 = (-0.19133 + -0.19133)/2.0
 sum -  nocc_ = 0.00000000
 ef = -0.19133 sum = 1.00000 

 Iter: 13  T:    20000.000  val:-0.191327  sumni 0.00000
 ne = 1.0000

 iter:14  failiter:14  energy:     -1.622404486083  total:     -1.093227277493  error:      0.000000000159
 In Bisection function HOMO = -0.524  LUMO =  2.734

 1.10486 = (-0.52427 + 2.73399)/2.0
 sum -  nocc_ = 3.10144948
 On Iteration in Bisection 0
 a: 3.10145  b:-0.49997

 0.29030 = (-0.52427 + 1.10486)/2.0
 sum -  nocc_ = 0.93233088
 On Iteration in Bisection 1
 a: 0.93233  b:-0.49997

 -0.11699 = (-0.52427 + 0.29030)/2.0
 sum -  nocc_ = 0.01496651
 On Iteration in Bisection 2
 a: 0.01497  b:-0.49997

 -0.32063 = (-0.52427 + -0.11699)/2.0
 sum -  nocc_ = -0.03791319
 On Iteration in Bisection 3
 a: -0.03791  b:-0.49997

 -0.21881 = (-0.32063 + -0.11699)/2.0
 sum -  nocc_ = -0.00461217
 On Iteration in Bisection 4
 a: -0.00461  b:-0.03791

 -0.16790 = (-0.21881 + -0.11699)/2.0
 sum -  nocc_ = 0.00390079
 On Iteration in Bisection 5
 a: 0.00390  b:-0.00461

 -0.19335 = (-0.21881 + -0.16790)/2.0
 sum -  nocc_ = -0.00032961
 On Iteration in Bisection 6
 a: -0.00033  b:-0.00461

 -0.18062 = (-0.19335 + -0.16790)/2.0
 sum -  nocc_ = 0.00175123
 On Iteration in Bisection 7
 a: 0.00175  b:-0.00033

 -0.18699 = (-0.19335 + -0.18062)/2.0
 sum -  nocc_ = 0.00070735
 On Iteration in Bisection 8
 a: 0.00071  b:-0.00033

 -0.19017 = (-0.19335 + -0.18699)/2.0
 sum -  nocc_ = 0.00018864
 On Iteration in Bisection 9
 a: 0.00019  b:-0.00033

 -0.19176 = (-0.19335 + -0.19017)/2.0
 sum -  nocc_ = -0.00007046
 On Iteration in Bisection 10
 a: -0.00007  b:-0.00033

 -0.19096 = (-0.19176 + -0.19017)/2.0
 sum -  nocc_ = 0.00005908
 On Iteration in Bisection 11
 a: 0.00006  b:-0.00007

 -0.19136 = (-0.19176 + -0.19096)/2.0
 sum -  nocc_ = -0.00000569
 On Iteration in Bisection 12
 a: -0.00001  b:-0.00007

 -0.19116 = (-0.19136 + -0.19096)/2.0
 sum -  nocc_ = 0.00002670
 On Iteration in Bisection 13
 a: 0.00003  b:-0.00001

 -0.19126 = (-0.19136 + -0.19116)/2.0
 sum -  nocc_ = 0.00001050
 On Iteration in Bisection 14
 a: 0.00001  b:-0.00001

 -0.19131 = (-0.19136 + -0.19126)/2.0
 sum -  nocc_ = 0.00000241
 On Iteration in Bisection 15
 a: 0.00000  b:-0.00001

 -0.19134 = (-0.19136 + -0.19131)/2.0
 sum -  nocc_ = -0.00000164
 On Iteration in Bisection 16
 a: -0.00000  b:-0.00001

 -0.19133 = (-0.19134 + -0.19131)/2.0
 sum -  nocc_ = 0.00000038
 On Iteration in Bisection 17
 a: 0.00000  b:-0.00000

 -0.19133 = (-0.19134 + -0.19133)/2.0
 sum -  nocc_ = -0.00000063
 On Iteration in Bisection 18
 a: -0.00000  b:-0.00000

 -0.19133 = (-0.19133 + -0.19133)/2.0
 sum -  nocc_ = -0.00000012
 On Iteration in Bisection 19
 a: -0.00000  b:-0.00000

 -0.19133 = (-0.19133 + -0.19133)/2.0
 sum -  nocc_ = 0.00000013
 On Iteration in Bisection 20
 a: 0.00000  b:-0.00000

 -0.19133 = (-0.19133 + -0.19133)/2.0
 sum -  nocc_ = 0.00000000
 ef = -0.19133 sum = 1.00000 

 Iter: 14  T:    20000.000  val:-0.191327  sumni 0.00000
 ne = 1.0000

 iter:15  failiter:15  energy:     -1.622404486053  total:     -1.093227277463  error:      0.000000000030
 In Bisection function HOMO = -0.524  LUMO =  2.734

 1.10486 = (-0.52427 + 2.73399)/2.0
 sum -  nocc_ = 3.10144948
 On Iteration in Bisection 0
 a: 3.10145  b:-0.49997

 0.29030 = (-0.52427 + 1.10486)/2.0
 sum -  nocc_ = 0.93233088
 On Iteration in Bisection 1
 a: 0.93233  b:-0.49997

 -0.11699 = (-0.52427 + 0.29030)/2.0
 sum -  nocc_ = 0.01496651
 On Iteration in Bisection 2
 a: 0.01497  b:-0.49997

 -0.32063 = (-0.52427 + -0.11699)/2.0
 sum -  nocc_ = -0.03791319
 On Iteration in Bisection 3
 a: -0.03791  b:-0.49997

 -0.21881 = (-0.32063 + -0.11699)/2.0
 sum -  nocc_ = -0.00461217
 On Iteration in Bisection 4
 a: -0.00461  b:-0.03791

 -0.16790 = (-0.21881 + -0.11699)/2.0
 sum -  nocc_ = 0.00390079
 On Iteration in Bisection 5
 a: 0.00390  b:-0.00461

 -0.19335 = (-0.21881 + -0.16790)/2.0
 sum -  nocc_ = -0.00032961
 On Iteration in Bisection 6
 a: -0.00033  b:-0.00461

 -0.18062 = (-0.19335 + -0.16790)/2.0
 sum -  nocc_ = 0.00175123
 On Iteration in Bisection 7
 a: 0.00175  b:-0.00033

 -0.18699 = (-0.19335 + -0.18062)/2.0
 sum -  nocc_ = 0.00070735
 On Iteration in Bisection 8
 a: 0.00071  b:-0.00033

 -0.19017 = (-0.19335 + -0.18699)/2.0
 sum -  nocc_ = 0.00018864
 On Iteration in Bisection 9
 a: 0.00019  b:-0.00033

 -0.19176 = (-0.19335 + -0.19017)/2.0
 sum -  nocc_ = -0.00007046
 On Iteration in Bisection 10
 a: -0.00007  b:-0.00033

 -0.19096 = (-0.19176 + -0.19017)/2.0
 sum -  nocc_ = 0.00005908
 On Iteration in Bisection 11
 a: 0.00006  b:-0.00007

 -0.19136 = (-0.19176 + -0.19096)/2.0
 sum -  nocc_ = -0.00000569
 On Iteration in Bisection 12
 a: -0.00001  b:-0.00007

 -0.19116 = (-0.19136 + -0.19096)/2.0
 sum -  nocc_ = 0.00002670
 On Iteration in Bisection 13
 a: 0.00003  b:-0.00001

 -0.19126 = (-0.19136 + -0.19116)/2.0
 sum -  nocc_ = 0.00001050
 On Iteration in Bisection 14
 a: 0.00001  b:-0.00001

 -0.19131 = (-0.19136 + -0.19126)/2.0
 sum -  nocc_ = 0.00000241
 On Iteration in Bisection 15
 a: 0.00000  b:-0.00001

 -0.19134 = (-0.19136 + -0.19131)/2.0
 sum -  nocc_ = -0.00000164
 On Iteration in Bisection 16
 a: -0.00000  b:-0.00001

 -0.19133 = (-0.19134 + -0.19131)/2.0
 sum -  nocc_ = 0.00000038
 On Iteration in Bisection 17
 a: 0.00000  b:-0.00000

 -0.19133 = (-0.19134 + -0.19133)/2.0
 sum -  nocc_ = -0.00000063
 On Iteration in Bisection 18
 a: -0.00000  b:-0.00000

 -0.19133 = (-0.19133 + -0.19133)/2.0
 sum -  nocc_ = -0.00000012
 On Iteration in Bisection 19
 a: -0.00000  b:-0.00000

 -0.19133 = (-0.19133 + -0.19133)/2.0
 sum -  nocc_ = 0.00000013
 On Iteration in Bisection 20
 a: 0.00000  b:-0.00000

 -0.19133 = (-0.19133 + -0.19133)/2.0
 sum -  nocc_ = 0.00000000
 ef = -0.19133 sum = 1.00000 

 Iter: 15  T:    20000.000  val:-0.191327  sumni 0.00000
 ne = 1.0000

 iter:16  failiter:16  energy:     -1.622404486048  total:     -1.093227277458  error:      0.000000000006
 In Bisection function HOMO = -0.524  LUMO =  2.734

 1.10486 = (-0.52427 + 2.73399)/2.0
 sum -  nocc_ = 3.10144948
 On Iteration in Bisection 0
 a: 3.10145  b:-0.49997

 0.29030 = (-0.52427 + 1.10486)/2.0
 sum -  nocc_ = 0.93233088
 On Iteration in Bisection 1
 a: 0.93233  b:-0.49997

 -0.11699 = (-0.52427 + 0.29030)/2.0
 sum -  nocc_ = 0.01496651
 On Iteration in Bisection 2
 a: 0.01497  b:-0.49997

 -0.32063 = (-0.52427 + -0.11699)/2.0
 sum -  nocc_ = -0.03791319
 On Iteration in Bisection 3
 a: -0.03791  b:-0.49997

 -0.21881 = (-0.32063 + -0.11699)/2.0
 sum -  nocc_ = -0.00461217
 On Iteration in Bisection 4
 a: -0.00461  b:-0.03791

 -0.16790 = (-0.21881 + -0.11699)/2.0
 sum -  nocc_ = 0.00390079
 On Iteration in Bisection 5
 a: 0.00390  b:-0.00461

 -0.19335 = (-0.21881 + -0.16790)/2.0
 sum -  nocc_ = -0.00032961
 On Iteration in Bisection 6
 a: -0.00033  b:-0.00461

 -0.18062 = (-0.19335 + -0.16790)/2.0
 sum -  nocc_ = 0.00175123
 On Iteration in Bisection 7
 a: 0.00175  b:-0.00033

 -0.18699 = (-0.19335 + -0.18062)/2.0
 sum -  nocc_ = 0.00070735
 On Iteration in Bisection 8
 a: 0.00071  b:-0.00033

 -0.19017 = (-0.19335 + -0.18699)/2.0
 sum -  nocc_ = 0.00018864
 On Iteration in Bisection 9
 a: 0.00019  b:-0.00033

 -0.19176 = (-0.19335 + -0.19017)/2.0
 sum -  nocc_ = -0.00007046
 On Iteration in Bisection 10
 a: -0.00007  b:-0.00033

 -0.19096 = (-0.19176 + -0.19017)/2.0
 sum -  nocc_ = 0.00005908
 On Iteration in Bisection 11
 a: 0.00006  b:-0.00007

 -0.19136 = (-0.19176 + -0.19096)/2.0
 sum -  nocc_ = -0.00000569
 On Iteration in Bisection 12
 a: -0.00001  b:-0.00007

 -0.19116 = (-0.19136 + -0.19096)/2.0
 sum -  nocc_ = 0.00002670
 On Iteration in Bisection 13
 a: 0.00003  b:-0.00001

 -0.19126 = (-0.19136 + -0.19116)/2.0
 sum -  nocc_ = 0.00001050
 On Iteration in Bisection 14
 a: 0.00001  b:-0.00001

 -0.19131 = (-0.19136 + -0.19126)/2.0
 sum -  nocc_ = 0.00000241
 On Iteration in Bisection 15
 a: 0.00000  b:-0.00001

 -0.19134 = (-0.19136 + -0.19131)/2.0
 sum -  nocc_ = -0.00000164
 On Iteration in Bisection 16
 a: -0.00000  b:-0.00001

 -0.19133 = (-0.19134 + -0.19131)/2.0
 sum -  nocc_ = 0.00000038
 On Iteration in Bisection 17
 a: 0.00000  b:-0.00000

 -0.19133 = (-0.19134 + -0.19133)/2.0
 sum -  nocc_ = -0.00000063
 On Iteration in Bisection 18
 a: -0.00000  b:-0.00000

 -0.19133 = (-0.19133 + -0.19133)/2.0
 sum -  nocc_ = -0.00000012
 On Iteration in Bisection 19
 a: -0.00000  b:-0.00000

 -0.19133 = (-0.19133 + -0.19133)/2.0
 sum -  nocc_ = 0.00000013
 On Iteration in Bisection 20
 a: 0.00000  b:-0.00000

 -0.19133 = (-0.19133 + -0.19133)/2.0
 sum -  nocc_ = 0.00000000
 ef = -0.19133 sum = 1.00000 

 Iter: 16  T:    20000.000  val:-0.191327  sumni 0.00000
 ne = 1.0000

 iter:17  failiter:17  energy:     -1.622404486047  total:     -1.093227277457  error:      0.000000000001
 In Bisection function HOMO = -0.524  LUMO =  2.734

 1.10486 = (-0.52427 + 2.73399)/2.0
 sum -  nocc_ = 3.10144948
 On Iteration in Bisection 0
 a: 3.10145  b:-0.49997

 0.29030 = (-0.52427 + 1.10486)/2.0
 sum -  nocc_ = 0.93233088
 On Iteration in Bisection 1
 a: 0.93233  b:-0.49997

 -0.11699 = (-0.52427 + 0.29030)/2.0
 sum -  nocc_ = 0.01496651
 On Iteration in Bisection 2
 a: 0.01497  b:-0.49997

 -0.32063 = (-0.52427 + -0.11699)/2.0
 sum -  nocc_ = -0.03791319
 On Iteration in Bisection 3
 a: -0.03791  b:-0.49997

 -0.21881 = (-0.32063 + -0.11699)/2.0
 sum -  nocc_ = -0.00461217
 On Iteration in Bisection 4
 a: -0.00461  b:-0.03791

 -0.16790 = (-0.21881 + -0.11699)/2.0
 sum -  nocc_ = 0.00390079
 On Iteration in Bisection 5
 a: 0.00390  b:-0.00461

 -0.19335 = (-0.21881 + -0.16790)/2.0
 sum -  nocc_ = -0.00032961
 On Iteration in Bisection 6
 a: -0.00033  b:-0.00461

 -0.18062 = (-0.19335 + -0.16790)/2.0
 sum -  nocc_ = 0.00175123
 On Iteration in Bisection 7
 a: 0.00175  b:-0.00033

 -0.18699 = (-0.19335 + -0.18062)/2.0
 sum -  nocc_ = 0.00070735
 On Iteration in Bisection 8
 a: 0.00071  b:-0.00033

 -0.19017 = (-0.19335 + -0.18699)/2.0
 sum -  nocc_ = 0.00018864
 On Iteration in Bisection 9
 a: 0.00019  b:-0.00033

 -0.19176 = (-0.19335 + -0.19017)/2.0
 sum -  nocc_ = -0.00007046
 On Iteration in Bisection 10
 a: -0.00007  b:-0.00033

 -0.19096 = (-0.19176 + -0.19017)/2.0
 sum -  nocc_ = 0.00005908
 On Iteration in Bisection 11
 a: 0.00006  b:-0.00007

 -0.19136 = (-0.19176 + -0.19096)/2.0
 sum -  nocc_ = -0.00000569
 On Iteration in Bisection 12
 a: -0.00001  b:-0.00007

 -0.19116 = (-0.19136 + -0.19096)/2.0
 sum -  nocc_ = 0.00002670
 On Iteration in Bisection 13
 a: 0.00003  b:-0.00001

 -0.19126 = (-0.19136 + -0.19116)/2.0
 sum -  nocc_ = 0.00001050
 On Iteration in Bisection 14
 a: 0.00001  b:-0.00001

 -0.19131 = (-0.19136 + -0.19126)/2.0
 sum -  nocc_ = 0.00000241
 On Iteration in Bisection 15
 a: 0.00000  b:-0.00001

 -0.19134 = (-0.19136 + -0.19131)/2.0
 sum -  nocc_ = -0.00000164
 On Iteration in Bisection 16
 a: -0.00000  b:-0.00001

 -0.19133 = (-0.19134 + -0.19131)/2.0
 sum -  nocc_ = 0.00000038
 On Iteration in Bisection 17
 a: 0.00000  b:-0.00000

 -0.19133 = (-0.19134 + -0.19133)/2.0
 sum -  nocc_ = -0.00000063
 On Iteration in Bisection 18
 a: -0.00000  b:-0.00000

 -0.19133 = (-0.19133 + -0.19133)/2.0
 sum -  nocc_ = -0.00000012
 On Iteration in Bisection 19
 a: -0.00000  b:-0.00000

 -0.19133 = (-0.19133 + -0.19133)/2.0
 sum -  nocc_ = 0.00000013
 On Iteration in Bisection 20
 a: 0.00000  b:-0.00000

 -0.19133 = (-0.19133 + -0.19133)/2.0
 sum -  nocc_ = 0.00000000
 ef = -0.19133 sum = 1.00000 

 Iter: 17  T:    20000.000  val:-0.191327  sumni 0.00000
 ne = 1.0000

 iter:18  failiter:18  energy:     -1.622404486046  total:     -1.093227277456  error:      0.000000000000
 FTHFEnergy =    -1.093227
 FD_dis[0] = 0.99481623 with -0.524268 eig value
 FD_dis[1] = 0.00517375 with 0.141737 eig value
 FD_dis[2] = 0.00000985 with 0.538788 eig value
 FD_dis[3] = 0.00000018 with 0.793714 eig value
 FD_dis[4] = 0.00000000 with 1.285737 eig value
 FD_dis[5] = 0.00000000 with 1.285737 eig value
 FD_dis[6] = 0.00000000 with 1.677670 eig value
 FD_dis[7] = 0.00000000 with 1.870153 eig value
 FD_dis[8] = 0.00000000 with 1.870153 eig value
 FD_dis[9] = 0.00000000 with 2.733992 eig value
*** PSI4 exiting successfully. Buy a developer a beer!
