    -----------------------------------------------------------------------
          PSI4: An Open-Source Ab Initio Electronic Structure Package
                              PSI 4.0 Driver

               Git: Rev {master} 556e8139d3cfa1f96ccffe2cdf22cc56a185d2b2

    J. M. Turney, A. C. Simmonett, R. M. Parrish, E. G. Hohenstein,
    F. A. Evangelista, J. T. Fermann, B. J. Mintz, L. A. Burns, J. J. Wilke,
    M. L. Abrams, N. J. Russ, M. L. Leininger, C. L. Janssen, E. T. Seidl,
    W. D. Allen, H. F. Schaefer, R. A. King, E. F. Valeev, C. D. Sherrill,
    and T. D. Crawford, WIREs Comput. Mol. Sci. 2, 556-565 (2012)
    (doi: 10.1002/wcms.93)

                         Additional Contributions by
    A. E. DePrince, M. Saitow, U. Bozkaya, A. Yu. Sokolov
    -----------------------------------------------------------------------

    Process ID:  57029
    PSI4DATADIR: /Users/kevinhannon/Programs/psi4cmake/psi4/lib
    Memory level set to 256.000 MB

  ==> Input File <==

--------------------------------------------------------------------------

# PYTHONPATH must include directory above plugin directory.
#     Define either externally or here, then import plugin.
sys.path.insert(0, './..')
import dfmp2

molecule {
0 1
H 0.00  0.00 1.2
H 0.00  0.00 0.00
H -4.00 -4.00 -4.00
H -4.00 -4.00 -5.2
}

set {
  basis 6-31g
  df_basis_mp2 cc-pvdz-ri
  freeze_core true
  memory 1gb
}

set dfmp2 {
  print 1
}
energy('scf')
energy('mp2')
energy('dfmp2')

dfmp2.exampleFN()

--------------------------------------------------------------------------

*** tstart() called on Kevins-MacBook-Pro.local
*** at Mon Jan 12 17:41:50 2015

dfmp2.so loaded.

*** tstart() called on Kevins-MacBook-Pro.local
*** at Mon Jan 12 17:41:50 2015


         ---------------------------------------------------------
                                   SCF
            by Justin Turney, Rob Parrish, and Andy Simmonett
                              RHF Reference
                        1 Threads,    256 MiB Core
         ---------------------------------------------------------

  ==> Geometry <==

    Molecular point group: c2h
    Full point group: C2h

    Geometry (in Angstrom), charge = 0, multiplicity = 1:

       Center              X                  Y                   Z       
    ------------   -----------------  -----------------  -----------------
           H          2.828427124746    -3.200000000000     0.000000000000
           H          2.828427124746    -2.000000000000     0.000000000000
           H         -2.828427124746     2.000000000000     0.000000000000
           H         -2.828427124746     3.200000000000     0.000000000000

  Running in c2h symmetry.

  Rotational constants: A =     21.67371  B =      0.28014  C =      0.27657 [cm^-1]
  Rotational constants: A = 649761.39959  B =   8398.42275  C =   8291.25501 [MHz]
  Nuclear repulsion =    1.158033974064691

  Charge       = 0
  Multiplicity = 1
  Electrons    = 4
  Nalpha       = 2
  Nbeta        = 2

  ==> Algorithm <==

  SCF Algorithm Type is DF.
  DIIS enabled.
  MOM disabled.
  Fractional occupation disabled.
  Guess Type is CORE.
  Energy threshold   = 1.00e-06
  Density threshold  = 1.00e-06
  Integral threshold = 0.00e+00

  ==> Primary Basis <==

  Basis Set: 6-31G
    Number of shells: 8
    Number of basis function: 8
    Number of Cartesian functions: 8
    Spherical Harmonics?: false
    Max angular momentum: 0

  ==> Pre-Iterations <==

   -------------------------------------------------------
    Irrep   Nso     Nmo     Nalpha   Nbeta   Ndocc  Nsocc
   -------------------------------------------------------
     Ag         4       4       0       0       0       0
     Bg         0       0       0       0       0       0
     Au         0       0       0       0       0       0
     Bu         4       4       0       0       0       0
   -------------------------------------------------------
    Total       8       8       2       2       2       0
   -------------------------------------------------------

 OEINTS: Overlap, kinetic, potential, dipole, and quadrupole integrals
         stored in file 35.

  ==> Integral Setup <==

  ==> DFJK: Density-Fitted J/K Matrices <==

    J tasked:                  Yes
    K tasked:                  Yes
    wK tasked:                  No
    OpenMP threads:              1
    Integrals threads:           1
    Memory (MB):               183
    Algorithm:                Core
    Integral Cache:           NONE
    Schwarz Cutoff:          1E-12
    Fitting Condition:       1E-12

   => Auxiliary Basis Set <=

  Basis Set: 
    Number of shells: 36
    Number of basis function: 100
    Number of Cartesian functions: 100
    Spherical Harmonics?: false
    Max angular momentum: 2

  Minimum eigenvalue in the overlap matrix is 1.8352176231E-01.
  Using Symmetric Orthogonalization.
  SCF Guess: Core (One-Electron) Hamiltonian.

  ==> Iterations <==

                           Total Energy        Delta E     RMS |[F,P]|

   @DF-RHF iter   1:    -2.05924881165549   -2.05925e+00   4.45411e-02 
   @DF-RHF iter   2:    -2.11025337890988   -5.10046e-02   7.02363e-03 DIIS
   @DF-RHF iter   3:    -2.11152709733115   -1.27372e-03   7.33699e-05 DIIS
   @DF-RHF iter   4:    -2.11152726996675   -1.72636e-07   1.37396e-05 DIIS
   @DF-RHF iter   5:    -2.11152727685445   -6.88770e-09   2.18446e-08 DIIS

  ==> Post-Iterations <==

    Orbital Energies (a.u.)
    -----------------------

    Doubly Occupied:                                                      

       1Ag    -0.486340     1Bu    -0.486339  

    Virtual:                                                              

       2Ag     0.116741     2Bu     0.116745     3Ag     0.989571  
       3Bu     0.989575     4Ag     1.069765     4Bu     1.069772  

    Final Occupation by Irrep:
             Ag    Bg    Au    Bu 
    DOCC [     1,    0,    0,    1 ]

  Energy converged.

  @DF-RHF Final Energy:    -2.11152727685445

   => Energetics <=

    Nuclear Repulsion Energy =              1.1580339740646908
    One-Electron Energy =                  -4.5937653243132832
    Two-Electron Energy =                   1.3242040733941385
    DFT Exchange-Correlation Energy =       0.0000000000000000
    Empirical Dispersion Energy =           0.0000000000000000
    Total Energy =                         -2.1115272768544537



Properties will be evaluated at   0.000000,   0.000000,   0.000000 Bohr
  ==> Properties <==


Properties computed using the SCF density matrix

  Nuclear Dipole Moment: (a.u.)
     X:     0.0000      Y:     0.0000      Z:     0.0000

  Electronic Dipole Moment: (a.u.)
     X:     0.0000      Y:     0.0000      Z:     0.0000

  Dipole Moment: (a.u.)
     X:     0.0000      Y:     0.0000      Z:     0.0000     Total:     0.0000

  Dipole Moment: (Debye)
     X:     0.0000      Y:     0.0000      Z:     0.0000     Total:     0.0000


  Saving occupied orbitals to File 180.

*** tstop() called on Kevins-MacBook-Pro.local at Mon Jan 12 17:41:50 2015
Module time:
	user time   =       0.23 seconds =       0.00 minutes
	system time =       0.01 seconds =       0.00 minutes
	total time  =          0 seconds =       0.00 minutes
Total time:
	user time   =       0.24 seconds =       0.00 minutes
	system time =       0.01 seconds =       0.00 minutes
	total time  =          0 seconds =       0.00 minutes

*** tstart() called on Kevins-MacBook-Pro.local
*** at Mon Jan 12 17:41:50 2015


         ---------------------------------------------------------
                                   SCF
            by Justin Turney, Rob Parrish, and Andy Simmonett
                              RHF Reference
                        1 Threads,    256 MiB Core
         ---------------------------------------------------------

  ==> Geometry <==

    Molecular point group: c2h
    Full point group: C2h

    Geometry (in Angstrom), charge = 0, multiplicity = 1:

       Center              X                  Y                   Z       
    ------------   -----------------  -----------------  -----------------
           H          2.828427124746    -3.200000000000     0.000000000000
           H          2.828427124746    -2.000000000000     0.000000000000
           H         -2.828427124746     2.000000000000     0.000000000000
           H         -2.828427124746     3.200000000000     0.000000000000

  Running in c2h symmetry.

  Rotational constants: A =     21.67371  B =      0.28014  C =      0.27657 [cm^-1]
  Rotational constants: A = 649761.39959  B =   8398.42275  C =   8291.25501 [MHz]
  Nuclear repulsion =    1.158033974064691

  Charge       = 0
  Multiplicity = 1
  Electrons    = 4
  Nalpha       = 2
  Nbeta        = 2

  ==> Algorithm <==

  SCF Algorithm Type is DF.
  DIIS enabled.
  MOM disabled.
  Fractional occupation disabled.
  Guess Type is CORE.
  Energy threshold   = 1.00e-08
  Density threshold  = 1.00e-08
  Integral threshold = 0.00e+00

  ==> Primary Basis <==

  Basis Set: 6-31G
    Number of shells: 8
    Number of basis function: 8
    Number of Cartesian functions: 8
    Spherical Harmonics?: false
    Max angular momentum: 0

  ==> Pre-Iterations <==

   -------------------------------------------------------
    Irrep   Nso     Nmo     Nalpha   Nbeta   Ndocc  Nsocc
   -------------------------------------------------------
     Ag         4       4       0       0       0       0
     Bg         0       0       0       0       0       0
     Au         0       0       0       0       0       0
     Bu         4       4       0       0       0       0
   -------------------------------------------------------
    Total       8       8       2       2       2       0
   -------------------------------------------------------

 OEINTS: Overlap, kinetic, potential, dipole, and quadrupole integrals
         stored in file 35.

  ==> Integral Setup <==

  ==> DFJK: Density-Fitted J/K Matrices <==

    J tasked:                  Yes
    K tasked:                  Yes
    wK tasked:                  No
    OpenMP threads:              1
    Integrals threads:           1
    Memory (MB):               183
    Algorithm:                Core
    Integral Cache:           NONE
    Schwarz Cutoff:          1E-12
    Fitting Condition:       1E-12

   => Auxiliary Basis Set <=

  Basis Set: 
    Number of shells: 36
    Number of basis function: 100
    Number of Cartesian functions: 100
    Spherical Harmonics?: false
    Max angular momentum: 2

  Minimum eigenvalue in the overlap matrix is 1.8352176231E-01.
  Using Symmetric Orthogonalization.
  SCF Guess: Core (One-Electron) Hamiltonian.

  ==> Iterations <==

                           Total Energy        Delta E     RMS |[F,P]|

   @DF-RHF iter   1:    -2.05924881165549   -2.05925e+00   4.45411e-02 
   @DF-RHF iter   2:    -2.11025337890988   -5.10046e-02   7.02363e-03 DIIS
   @DF-RHF iter   3:    -2.11152709733115   -1.27372e-03   7.33699e-05 DIIS
   @DF-RHF iter   4:    -2.11152726996675   -1.72636e-07   1.37396e-05 DIIS
   @DF-RHF iter   5:    -2.11152727685445   -6.88770e-09   2.18446e-08 DIIS
   @DF-RHF iter   6:    -2.11152727685447   -1.50990e-14   4.31629e-10 DIIS

  ==> Post-Iterations <==

    Orbital Energies (a.u.)
    -----------------------

    Doubly Occupied:                                                      

       1Ag    -0.486340     1Bu    -0.486339  

    Virtual:                                                              

       2Ag     0.116741     2Bu     0.116745     3Ag     0.989571  
       3Bu     0.989575     4Ag     1.069765     4Bu     1.069772  

    Final Occupation by Irrep:
             Ag    Bg    Au    Bu 
    DOCC [     1,    0,    0,    1 ]

  Energy converged.

  @DF-RHF Final Energy:    -2.11152727685447

   => Energetics <=

    Nuclear Repulsion Energy =              1.1580339740646908
    One-Electron Energy =                  -4.5937653197492416
    Two-Electron Energy =                   1.3242040688300813
    DFT Exchange-Correlation Energy =       0.0000000000000000
    Empirical Dispersion Energy =           0.0000000000000000
    Total Energy =                         -2.1115272768544697



Properties will be evaluated at   0.000000,   0.000000,   0.000000 Bohr
  ==> Properties <==


Properties computed using the SCF density matrix

  Nuclear Dipole Moment: (a.u.)
     X:     0.0000      Y:     0.0000      Z:     0.0000

  Electronic Dipole Moment: (a.u.)
     X:     0.0000      Y:     0.0000      Z:     0.0000

  Dipole Moment: (a.u.)
     X:     0.0000      Y:     0.0000      Z:     0.0000     Total:     0.0000

  Dipole Moment: (Debye)
     X:     0.0000      Y:     0.0000      Z:     0.0000     Total:     0.0000


  Saving occupied orbitals to File 180.

*** tstop() called on Kevins-MacBook-Pro.local at Mon Jan 12 17:41:51 2015
Module time:
	user time   =       0.21 seconds =       0.00 minutes
	system time =       0.01 seconds =       0.00 minutes
	total time  =          1 seconds =       0.02 minutes
Total time:
	user time   =       0.45 seconds =       0.01 minutes
	system time =       0.02 seconds =       0.00 minutes
	total time  =          1 seconds =       0.02 minutes

  //>>>>>>>>>>>>>>>>>>>>>>>>>>>>>>>>>>>//
  //               DFMP2               //
  //<<<<<<<<<<<<<<<<<<<<<<<<<<<<<<<<<<<//


*** tstart() called on Kevins-MacBook-Pro.local
*** at Mon Jan 12 17:41:51 2015

	 --------------------------------------------------------
	                          DF-MP2                         
	      2nd-Order Density-Fitted Moller-Plesset Theory     
	              RMP2 Wavefunction,   1 Threads             
	                                                         
	        Rob Parrish, Justin Turney, Andy Simmonett,      
	           Ed Hohenstein, and C. David Sherrill          
	 --------------------------------------------------------

   => Auxiliary Basis Set <=

  Basis Set: CC-PVDZ-RI
    Number of shells: 24
    Number of basis function: 56
    Number of Cartesian functions: 60
    Spherical Harmonics?: true
    Max angular momentum: 2

	 --------------------------------------------------------
	                 NBF =     8, NAUX =    56
	 --------------------------------------------------------
	   CLASS    FOCC     OCC    AOCC    AVIR     VIR    FVIR
	   PAIRS       0       2       2       6       6       0
	 --------------------------------------------------------

	----------------------------------------------------------
	 ==================> DF-MP2 Energies <=================== 
	----------------------------------------------------------
	 Reference Energy          =      -2.1115272768544697 [H]
	 Singles Energy            =      -0.0000000000000000 [H]
	 Same-Spin Energy          =      -0.0000000769299728 [H]
	 Opposite-Spin Energy      =      -0.0467738136413811 [H]
	 Correlation Energy        =      -0.0467738905713539 [H]
	 Total Energy              =      -2.1583011674258237 [H]
	----------------------------------------------------------
	 ================> DF-SCS-MP2 Energies <================= 
	----------------------------------------------------------
	 SCS Same-Spin Scale       =       0.3333333333333333 [-]
	 SCS Opposite-Spin Scale   =       1.2000000000000000 [-]
	 SCS Same-Spin Energy      =      -0.0000000256433243 [H]
	 SCS Opposite-Spin Energy  =      -0.0561285763696573 [H]
	 SCS Correlation Energy    =      -0.0561286020129816 [H]
	 SCS Total Energy          =      -2.1676558788674511 [H]
	----------------------------------------------------------


*** tstop() called on Kevins-MacBook-Pro.local at Mon Jan 12 17:41:51 2015
Module time:
	user time   =       0.10 seconds =       0.00 minutes
	system time =       0.00 seconds =       0.00 minutes
	total time  =          0 seconds =       0.00 minutes
Total time:
	user time   =       0.55 seconds =       0.01 minutes
	system time =       0.02 seconds =       0.00 minutes
	total time  =          1 seconds =       0.02 minutes

*** tstart() called on Kevins-MacBook-Pro.local
*** at Mon Jan 12 17:41:51 2015


         ---------------------------------------------------------
                                   SCF
            by Justin Turney, Rob Parrish, and Andy Simmonett
                              RHF Reference
                        1 Threads,    256 MiB Core
         ---------------------------------------------------------

  ==> Geometry <==

    Molecular point group: c2h
    Full point group: C2h

    Geometry (in Angstrom), charge = 0, multiplicity = 1:

       Center              X                  Y                   Z       
    ------------   -----------------  -----------------  -----------------
           H          2.828427124746    -3.200000000000     0.000000000000
           H          2.828427124746    -2.000000000000     0.000000000000
           H         -2.828427124746     2.000000000000     0.000000000000
           H         -2.828427124746     3.200000000000     0.000000000000

  Running in c2h symmetry.

  Rotational constants: A =     21.67371  B =      0.28014  C =      0.27657 [cm^-1]
  Rotational constants: A = 649761.39959  B =   8398.42275  C =   8291.25501 [MHz]
  Nuclear repulsion =    1.158033974064691

  Charge       = 0
  Multiplicity = 1
  Electrons    = 4
  Nalpha       = 2
  Nbeta        = 2

  ==> Algorithm <==

  SCF Algorithm Type is PK.
  DIIS enabled.
  MOM disabled.
  Fractional occupation disabled.
  Guess Type is CORE.
  Energy threshold   = 1.00e-08
  Density threshold  = 1.00e-08
  Integral threshold = 0.00e+00

  ==> Primary Basis <==

  Basis Set: 6-31G
    Number of shells: 8
    Number of basis function: 8
    Number of Cartesian functions: 8
    Spherical Harmonics?: false
    Max angular momentum: 0

  ==> Pre-Iterations <==

   -------------------------------------------------------
    Irrep   Nso     Nmo     Nalpha   Nbeta   Ndocc  Nsocc
   -------------------------------------------------------
     Ag         4       4       0       0       0       0
     Bg         0       0       0       0       0       0
     Au         0       0       0       0       0       0
     Bu         4       4       0       0       0       0
   -------------------------------------------------------
    Total       8       8       2       2       2       0
   -------------------------------------------------------

  Starting with a DF guess...

 OEINTS: Overlap, kinetic, potential, dipole, and quadrupole integrals
         stored in file 35.

  ==> Integral Setup <==

  ==> DFJK: Density-Fitted J/K Matrices <==

    J tasked:                  Yes
    K tasked:                  Yes
    wK tasked:                  No
    OpenMP threads:              1
    Integrals threads:           1
    Memory (MB):               183
    Algorithm:                Core
    Integral Cache:           NONE
    Schwarz Cutoff:          1E-12
    Fitting Condition:       1E-12

   => Auxiliary Basis Set <=

  Basis Set: 
    Number of shells: 36
    Number of basis function: 100
    Number of Cartesian functions: 100
    Spherical Harmonics?: false
    Max angular momentum: 2

  Minimum eigenvalue in the overlap matrix is 1.8352176231E-01.
  Using Symmetric Orthogonalization.
  SCF Guess: Core (One-Electron) Hamiltonian.

  ==> Iterations <==

                           Total Energy        Delta E     RMS |[F,P]|

   @DF-RHF iter   1:    -2.05924881165549   -2.05925e+00   4.45411e-02 
   @DF-RHF iter   2:    -2.11025337890988   -5.10046e-02   7.02363e-03 DIIS
   @DF-RHF iter   3:    -2.11152709733115   -1.27372e-03   7.33699e-05 DIIS
   @DF-RHF iter   4:    -2.11152726996675   -1.72636e-07   1.37396e-05 DIIS
   @DF-RHF iter   5:    -2.11152727685445   -6.88770e-09   2.18446e-08 DIIS
   @DF-RHF iter   6:    -2.11152727685447   -1.59872e-14   4.31629e-10 DIIS

  DF guess converged.

  ==> Integral Setup <==

 MINTS: Wrapper to libmints.
   by Justin Turney

   Calculation information:
      Number of atoms:                   4
      Number of AO shells:               8
      Number of SO shells:               4
      Number of primitives:             16
      Number of atomic orbitals:         8
      Number of basis functions:         8

      Number of irreps:                  4
      Integral cutoff                 0.00e+00
      Number of functions per irrep: [   4    0    0    4 ]

 OEINTS: Overlap, kinetic, potential, dipole, and quadrupole integrals
         stored in file 35.

      Computing two-electron integrals...done
      Computed 346 non-zero two-electron integrals.
        Stored in file 33.

	Batch   1 pq = [       0,      20] index = [             0,210]
  ==> DiskJK: Disk-Based J/K Matrices <==

    J tasked:                  Yes
    K tasked:                  Yes
    wK tasked:                  No
    Memory (MB):               183
    Schwarz Cutoff:          1E-12

   @RHF iter   7:    -2.11152059335341    6.68350e-06   9.40042e-07 DIIS
   @RHF iter   8:    -2.11152059337560   -2.21867e-11   1.48482e-07 DIIS
   @RHF iter   9:    -2.11152059337617   -5.69322e-13   2.84050e-10 DIIS

  ==> Post-Iterations <==

    Orbital Energies (a.u.)
    -----------------------

    Doubly Occupied:                                                      

       1Ag    -0.486336     1Bu    -0.486335  

    Virtual:                                                              

       2Ag     0.116711     2Bu     0.116715     3Ag     0.989600  
       3Bu     0.989603     4Ag     1.069700     4Bu     1.069707  

    Final Occupation by Irrep:
             Ag    Bg    Au    Bu 
    DOCC [     1,    0,    0,    1 ]

  Energy converged.

  @RHF Final Energy:    -2.11152059337617

   => Energetics <=

    Nuclear Repulsion Energy =              1.1580339740646908
    One-Electron Energy =                  -4.5937672717782210
    Two-Electron Energy =                   1.3242127043373602
    DFT Exchange-Correlation Energy =       0.0000000000000000
    Empirical Dispersion Energy =           0.0000000000000000
    Total Energy =                         -2.1115205933761700



Properties will be evaluated at   0.000000,   0.000000,   0.000000 Bohr
  ==> Properties <==


Properties computed using the SCF density matrix

  Nuclear Dipole Moment: (a.u.)
     X:     0.0000      Y:     0.0000      Z:     0.0000

  Electronic Dipole Moment: (a.u.)
     X:     0.0000      Y:     0.0000      Z:     0.0000

  Dipole Moment: (a.u.)
     X:     0.0000      Y:     0.0000      Z:     0.0000     Total:     0.0000

  Dipole Moment: (Debye)
     X:     0.0000      Y:     0.0000      Z:     0.0000     Total:     0.0000


  Saving occupied orbitals to File 180.

*** tstop() called on Kevins-MacBook-Pro.local at Mon Jan 12 17:41:51 2015
Module time:
	user time   =       0.28 seconds =       0.00 minutes
	system time =       0.01 seconds =       0.00 minutes
	total time  =          0 seconds =       0.00 minutes
Total time:
	user time   =       0.84 seconds =       0.01 minutes
	system time =       0.03 seconds =       0.00 minutes
	total time  =          1 seconds =       0.02 minutes
Reading options from the DFMP2 block
Calling plugin dfmp2.so.

naux = 56  nbf = 8  ## C AO ACTIVE_VIR (Symmetry 0) ##
  Irrep: 1 Size: 8 x 6

                 1                   2                   3                   4                   5

    1     0.13605483620987     0.13605521463185     0.64691821313095     0.64695777491900     0.66283850017022
    2     0.71106383464258     0.71106173094429    -0.49400113380187    -0.49404538442136    -0.80390527306021
    3    -0.13607393996558    -0.13607980539411     0.64688315812077     0.64684381574165    -0.66286957541064
    4    -0.71107349675761    -0.71106964225765    -0.49396816460389    -0.49392507261356     0.80393045887193
    5    -0.13607393996558     0.13607980539411     0.64688315812077    -0.64684381574165    -0.66286957541064
    6    -0.71107349675761     0.71106964225765    -0.49396816460389     0.49392507261356     0.80393045887193
    7     0.13605483620987    -0.13605521463185     0.64691821313095    -0.64695777491900     0.66283850017022
    8     0.71106383464258    -0.71106173094429    -0.49400113380187     0.49404538442136    -0.80390527306021

                 6

    1     0.66279981775528
    2    -0.80388075633787
    3    -0.66290801724893
    4     0.80396625644517
    5     0.66290801724893
    6    -0.80396625644517
    7    -0.66279981775528
    8     0.80388075633787



    Molecular point group: c2h
    Full point group: C2h

    Geometry (in Angstrom), charge = 0, multiplicity = 1:

       Center              X                  Y                   Z       
    ------------   -----------------  -----------------  -----------------
           H          2.828427124746    -3.200000000000     0.000000000000
           H          2.828427124746    -2.000000000000     0.000000000000
           H         -2.828427124746     2.000000000000     0.000000000000
           H         -2.828427124746     3.200000000000     0.000000000000


    Nuclear repulsion energy:       1.15803397

  ==> DF Tensor (by Rob Parrish) <==

 => Primary Basis Set <= 

  Basis Set: 6-31G
    Number of shells: 8
    Number of basis function: 8
    Number of Cartesian functions: 8
    Spherical Harmonics?: false
    Max angular momentum: 0

 => Auxiliary Basis Set <= 

  Basis Set: CC-PVDZ-RI
    Number of shells: 24
    Number of basis function: 56
    Number of Cartesian functions: 60
    Spherical Harmonics?: true
    Max angular momentum: 2

  ## MO ERI Tensor in Mathematica form ##
{{{1.186258928313, 0.000006839854, 0.228469597754, 0.000004361518, 0.000006839854, 1.016792884271, 0.000009509435, 0.255876167270, 0.228469597754, 0.000009509435, 1.111434768920, 0.000022349259, 0.000004361518, 0.255876167270, 0.000022349259, 1.175901975087},
{0.000006839854, 0.245532267102, 0.000007580619, 0.154959574212, 0.245532267102, -0.000020023888, 0.065503449411, -0.000014629348, 0.000007580619, 0.065503449411, 0.000024323986, 0.277121706905, 0.154959574212, -0.000014629348, 0.277121706905, -0.000037215777},
{0.228469597754, 0.000007580619, 0.169095557966, 0.000010420619, 0.000007580619, 0.153291551553, 0.000012610679, 0.160767597767, 0.169095557966, 0.000012610679, 0.235147297974, 0.000023526804, 0.000010420619, 0.160767597767, 0.000023526804, 0.299475140966},
{0.000004361518, 0.154959574212, 0.000010420619, 0.189424963046, 0.154959574212, -0.000014989532, 0.122378691584, -0.000017582524, 0.000010420619, 0.122378691584, 0.000023178277, 0.240290645321, 0.189424963046, -0.000017582524, 0.240290645321, -0.000032255916},
{0.000006839854, 0.245532267102, 0.000007580619, 0.154959574212, 0.245532267102, -0.000020023888, 0.065503449411, -0.000014629348, 0.000007580619, 0.065503449411, 0.000024323986, 0.277121706905, 0.154959574212, -0.000014629348, 0.277121706905, -0.000037215777},
{1.016792884271, -0.000020023888, 0.153291551553, -0.000014989532, -0.000020023888, 0.957711616589, -0.000001644695, 0.162703595841, 0.153291551553, -0.000001644695, 0.970924424669, -0.000014607982, -0.000014989532, 0.162703595841, -0.000014607982, 1.029479585189},
{0.000009509435, 0.065503449411, 0.000012610679, 0.122378691584, 0.065503449411, -0.000001644695, 0.093871603272, -0.000006187000, 0.000012610679, 0.093871603272, 0.000021014672, 0.128673123184, 0.122378691584, -0.000006187000, 0.128673123184, -0.000007300957},
{0.255876167270, -0.000014629348, 0.160767597767, -0.000017582524, -0.000014629348, 0.162703595841, -0.000006187000, 0.172727434422, 0.160767597767, -0.000006187000, 0.255178435840, -0.000012420965, -0.000017582524, 0.172727434422, -0.000012420965, 0.304773444098},
{0.228469597754, 0.000007580619, 0.169095557966, 0.000010420619, 0.000007580619, 0.153291551553, 0.000012610679, 0.160767597767, 0.169095557966, 0.000012610679, 0.235147297974, 0.000023526804, 0.000010420619, 0.160767597767, 0.000023526804, 0.299475140966},
{0.000009509435, 0.065503449411, 0.000012610679, 0.122378691584, 0.065503449411, -0.000001644695, 0.093871603272, -0.000006187000, 0.000012610679, 0.093871603272, 0.000021014672, 0.128673123184, 0.122378691584, -0.000006187000, 0.128673123184, -0.000007300957},
{1.111434768920, 0.000024323986, 0.235147297974, 0.000023178277, 0.000024323986, 0.970924424669, 0.000021014672, 0.255178435840, 0.235147297974, 0.000021014672, 1.102748783585, 0.000051098540, 0.000023178277, 0.255178435840, 0.000051098540, 1.171887530969},
{0.000022349259, 0.277121706905, 0.000023526804, 0.240290645321, 0.277121706905, -0.000014607982, 0.128673123184, -0.000012420965, 0.000023526804, 0.128673123184, 0.000051098540, 0.390746588215, 0.240290645321, -0.000012420965, 0.390746588215, -0.000032351431},
{0.000004361518, 0.154959574212, 0.000010420619, 0.189424963046, 0.154959574212, -0.000014989532, 0.122378691584, -0.000017582524, 0.000010420619, 0.122378691584, 0.000023178277, 0.240290645321, 0.189424963046, -0.000017582524, 0.240290645321, -0.000032255916},
{0.255876167270, -0.000014629348, 0.160767597767, -0.000017582524, -0.000014629348, 0.162703595841, -0.000006187000, 0.172727434422, 0.160767597767, -0.000006187000, 0.255178435840, -0.000012420965, -0.000017582524, 0.172727434422, -0.000012420965, 0.304773444098},
{0.000022349259, 0.277121706905, 0.000023526804, 0.240290645321, 0.277121706905, -0.000014607982, 0.128673123184, -0.000012420965, 0.000023526804, 0.128673123184, 0.000051098540, 0.390746588215, 0.240290645321, -0.000012420965, 0.390746588215, -0.000032351431},
{1.175901975087, -0.000037215777, 0.299475140966, -0.000032255916, -0.000037215777, 1.029479585189, -0.000007300957, 0.304773444098, 0.299475140966, -0.000007300957, 1.171887530969, -0.000032351431, -0.000032255916, 0.304773444098, -0.000032351431, 1.278574816375}}}
  ## AO ERI Tensor in Mathematica form ##
{{{1.076566111405, 0.578470375451, 0.108955414033, 0.283185569871, 0.000000000000, 0.000000000000, 0.000000000000, 0.000000000000, 0.578470375451, 0.587395893691, 0.171966559832, 0.347173522539, 0.000000000000, 0.000000005693, 0.000000000000, 0.000000000093, 0.108955414033, 0.171966559832, 0.438656142867, 0.285307213648, 0.000000000000, 0.000000000035, 0.000000000000, 0.000000000000, 0.283185569871, 0.347173522539, 0.285307213648, 0.398823087589, 0.000000000013, 0.000000123054, 0.000000000000, 0.000000004618, 0.000000000000, 0.000000000000, 0.000000000000, 0.000000000013, 0.068869662809, 0.045336351468, 0.009541250164, 0.022619763692, 0.000000000000, 0.000000005693, 0.000000000035, 0.000000123054, 0.045336351468, 0.068869662809, 0.021164827082, 0.043144658561, 0.000000000000, 0.000000000000, 0.000000000000, 0.000000000000, 0.009541250164, 0.021164827082, 0.061952483172, 0.040782827109, 0.000000000000, 0.000000000093, 0.000000000000, 0.000000004618, 0.022619763692, 0.043144658561, 0.040782827109, 0.061952483172},
{0.578470375451, 0.329423212228, 0.064735881982, 0.162706461628, 0.000000000000, 0.000000000000, 0.000000000000, 0.000000000000, 0.329423212228, 0.361303849541, 0.108974956192, 0.216436856522, 0.000000000000, 0.000000003748, 0.000000000000, 0.000000000061, 0.064735881982, 0.108974956192, 0.285307213648, 0.184318021754, 0.000000000000, 0.000000000023, 0.000000000000, 0.000000000000, 0.162706461628, 0.216436856522, 0.184318021754, 0.255616972632, 0.000000000008, 0.000000081005, 0.000000000000, 0.000000003040, 0.000000000000, 0.000000000000, 0.000000000000, 0.000000000008, 0.045336351468, 0.029844559717, 0.006280929124, 0.014890410596, 0.000000000000, 0.000000003748, 0.000000000023, 0.000000081005, 0.029844559717, 0.045336351468, 0.013932637394, 0.028401785702, 0.000000000000, 0.000000000000, 0.000000000000, 0.000000000000, 0.006280929124, 0.013932637394, 0.040782827109, 0.026847010836, 0.000000000000, 0.000000000061, 0.000000000000, 0.000000003040, 0.014890410596, 0.028401785702, 0.026847010836, 0.040782827109},
{0.108955414033, 0.064735881982, 0.019489581845, 0.036724098924, 0.000000000000, 0.000000000000, 0.000000000000, 0.000000000000, 0.064735881982, 0.075536255960, 0.036724098924, 0.055388621215, 0.000000000000, 0.000000000922, 0.000000000000, 0.000000000015, 0.019489581845, 0.036724098924, 0.108955414033, 0.064735881982, 0.000000000000, 0.000000000006, 0.000000000000, 0.000000000000, 0.036724098924, 0.055388621215, 0.064735881982, 0.075536255960, 0.000000000002, 0.000000019986, 0.000000000000, 0.000000000748, 0.000000000000, 0.000000000000, 0.000000000000, 0.000000000002, 0.010601779436, 0.006979067112, 0.001469568167, 0.003483103876, 0.000000000000, 0.000000000922, 0.000000000006, 0.000000019986, 0.006979067112, 0.010601779436, 0.003259909152, 0.006645368877, 0.000000000000, 0.000000000000, 0.000000000000, 0.000000000000, 0.001469568167, 0.003259909152, 0.009541250164, 0.006280929124, 0.000000000000, 0.000000000015, 0.000000000000, 0.000000000748, 0.003483103876, 0.006645368877, 0.006280929124, 0.009541250164},
{0.283185569871, 0.162706461628, 0.036724098924, 0.084277788387, 0.000000000000, 0.000000000000, 0.000000000000, 0.000000000000, 0.162706461628, 0.180987958013, 0.063787946047, 0.116346429809, 0.000000000000, 0.000000001983, 0.000000000000, 0.000000000032, 0.036724098924, 0.063787946047, 0.171966559832, 0.108974956192, 0.000000000000, 0.000000000013, 0.000000000000, 0.000000000000, 0.084277788387, 0.116346429809, 0.108974956192, 0.143964299793, 0.000000000004, 0.000000042877, 0.000000000000, 0.000000001607, 0.000000000000, 0.000000000000, 0.000000000000, 0.000000000004, 0.023527801188, 0.015488164460, 0.003259909152, 0.007728096052, 0.000000000000, 0.000000001983, 0.000000000013, 0.000000042877, 0.015488164460, 0.023527801188, 0.007230980434, 0.014741093757, 0.000000000000, 0.000000000000, 0.000000000000, 0.000000000000, 0.003259909152, 0.007230980434, 0.021164827082, 0.013932637394, 0.000000000000, 0.000000000032, 0.000000000000, 0.000000001607, 0.007728096052, 0.014741093757, 0.013932637394, 0.021164827082},
{0.000000000000, 0.000000000000, 0.000000000000, 0.000000000000, 0.000000000000, 0.000000000000, 0.000000000000, 0.000000000000, 0.000000000000, 0.000000000000, 0.000000000000, 0.000000000000, 0.000000000000, 0.000000000000, 0.000000000000, 0.000000000000, 0.000000000000, 0.000000000000, 0.000000000000, 0.000000000000, 0.000000000000, 0.000000000000, 0.000000000000, 0.000000000000, 0.000000000000, 0.000000000000, 0.000000000000, 0.000000000000, 0.000000000000, 0.000000000000, 0.000000000000, 0.000000000000, 0.000000000000, 0.000000000000, 0.000000000000, 0.000000000000, 0.000000000000, 0.000000000000, 0.000000000000, 0.000000000000, 0.000000000000, 0.000000000000, 0.000000000000, 0.000000000000, 0.000000000000, 0.000000000000, 0.000000000000, 0.000000000000, 0.000000000000, 0.000000000000, 0.000000000000, 0.000000000000, 0.000000000000, 0.000000000000, 0.000000000000, 0.000000000000, 0.000000000000, 0.000000000000, 0.000000000000, 0.000000000000, 0.000000000000, 0.000000000000, 0.000000000000, 0.000000000000},
{0.000000000000, 0.000000000000, 0.000000000000, 0.000000000000, 0.000000000000, 0.000000000000, 0.000000000000, 0.000000000000, 0.000000000000, 0.000000000000, 0.000000000000, 0.000000000000, 0.000000000000, 0.000000000000, 0.000000000000, 0.000000000000, 0.000000000000, 0.000000000000, 0.000000000000, 0.000000000000, 0.000000000000, 0.000000000000, 0.000000000000, 0.000000000000, 0.000000000000, 0.000000000000, 0.000000000000, 0.000000000000, 0.000000000000, 0.000000000000, 0.000000000000, 0.000000000000, 0.000000000000, 0.000000000000, 0.000000000000, 0.000000000000, 0.000000000000, 0.000000000000, 0.000000000000, 0.000000000000, 0.000000000000, 0.000000000000, 0.000000000000, 0.000000000000, 0.000000000000, 0.000000000000, 0.000000000000, 0.000000000000, 0.000000000000, 0.000000000000, 0.000000000000, 0.000000000000, 0.000000000000, 0.000000000000, 0.000000000000, 0.000000000000, 0.000000000000, 0.000000000000, 0.000000000000, 0.000000000000, 0.000000000000, 0.000000000000, 0.000000000000, 0.000000000000},
{0.000000000000, 0.000000000000, 0.000000000000, 0.000000000000, 0.000000000000, 0.000000000000, 0.000000000000, 0.000000000000, 0.000000000000, 0.000000000000, 0.000000000000, 0.000000000000, 0.000000000000, 0.000000000000, 0.000000000000, 0.000000000000, 0.000000000000, 0.000000000000, 0.000000000000, 0.000000000000, 0.000000000000, 0.000000000000, 0.000000000000, 0.000000000000, 0.000000000000, 0.000000000000, 0.000000000000, 0.000000000000, 0.000000000000, 0.000000000000, 0.000000000000, 0.000000000000, 0.000000000000, 0.000000000000, 0.000000000000, 0.000000000000, 0.000000000000, 0.000000000000, 0.000000000000, 0.000000000000, 0.000000000000, 0.000000000000, 0.000000000000, 0.000000000000, 0.000000000000, 0.000000000000, 0.000000000000, 0.000000000000, 0.000000000000, 0.000000000000, 0.000000000000, 0.000000000000, 0.000000000000, 0.000000000000, 0.000000000000, 0.000000000000, 0.000000000000, 0.000000000000, 0.000000000000, 0.000000000000, 0.000000000000, 0.000000000000, 0.000000000000, 0.000000000000},
{0.000000000000, 0.000000000000, 0.000000000000, 0.000000000000, 0.000000000000, 0.000000000000, 0.000000000000, 0.000000000000, 0.000000000000, 0.000000000000, 0.000000000000, 0.000000000000, 0.000000000000, 0.000000000000, 0.000000000000, 0.000000000000, 0.000000000000, 0.000000000000, 0.000000000000, 0.000000000000, 0.000000000000, 0.000000000000, 0.000000000000, 0.000000000000, 0.000000000000, 0.000000000000, 0.000000000000, 0.000000000000, 0.000000000000, 0.000000000000, 0.000000000000, 0.000000000000, 0.000000000000, 0.000000000000, 0.000000000000, 0.000000000000, 0.000000000000, 0.000000000000, 0.000000000000, 0.000000000000, 0.000000000000, 0.000000000000, 0.000000000000, 0.000000000000, 0.000000000000, 0.000000000000, 0.000000000000, 0.000000000000, 0.000000000000, 0.000000000000, 0.000000000000, 0.000000000000, 0.000000000000, 0.000000000000, 0.000000000000, 0.000000000000, 0.000000000000, 0.000000000000, 0.000000000000, 0.000000000000, 0.000000000000, 0.000000000000, 0.000000000000, 0.000000000000},
{0.578470375451, 0.329423212228, 0.064735881982, 0.162706461628, 0.000000000000, 0.000000000000, 0.000000000000, 0.000000000000, 0.329423212228, 0.361303849541, 0.108974956192, 0.216436856522, 0.000000000000, 0.000000003748, 0.000000000000, 0.000000000061, 0.064735881982, 0.108974956192, 0.285307213648, 0.184318021754, 0.000000000000, 0.000000000023, 0.000000000000, 0.000000000000, 0.162706461628, 0.216436856522, 0.184318021754, 0.255616972632, 0.000000000008, 0.000000081005, 0.000000000000, 0.000000003040, 0.000000000000, 0.000000000000, 0.000000000000, 0.000000000008, 0.045336351468, 0.029844559717, 0.006280929124, 0.014890410596, 0.000000000000, 0.000000003748, 0.000000000023, 0.000000081005, 0.029844559717, 0.045336351468, 0.013932637394, 0.028401785702, 0.000000000000, 0.000000000000, 0.000000000000, 0.000000000000, 0.006280929124, 0.013932637394, 0.040782827109, 0.026847010836, 0.000000000000, 0.000000000061, 0.000000000000, 0.000000003040, 0.014890410596, 0.028401785702, 0.026847010836, 0.040782827109},
{0.587395893691, 0.361303849541, 0.075536255960, 0.180987958013, 0.000000000000, 0.000000000000, 0.000000000000, 0.000000000000, 0.361303849541, 0.453150386349, 0.143964299793, 0.279869903392, 0.000000000000, 0.000000005693, 0.000000000000, 0.000000000093, 0.075536255960, 0.143964299793, 0.398823087589, 0.255616972632, 0.000000000000, 0.000000000034, 0.000000000000, 0.000000000000, 0.180987958013, 0.279869903392, 0.255616972632, 0.353763562188, 0.000000000013, 0.000000123053, 0.000000000000, 0.000000004618, 0.000000000000, 0.000000000000, 0.000000000000, 0.000000000013, 0.068869662809, 0.045336351468, 0.009541250164, 0.022619763692, 0.000000000000, 0.000000005693, 0.000000000034, 0.000000123053, 0.045336351468, 0.068869662809, 0.021164827082, 0.043144658561, 0.000000000000, 0.000000000000, 0.000000000000, 0.000000000000, 0.009541250164, 0.021164827082, 0.061952483172, 0.040782827109, 0.000000000000, 0.000000000093, 0.000000000000, 0.000000004618, 0.022619763692, 0.043144658561, 0.040782827109, 0.061952483172},
{0.171966559832, 0.108974956192, 0.036724098924, 0.063787946047, 0.000000000000, 0.000000000000, 0.000000000000, 0.000000000000, 0.108974956192, 0.143964299793, 0.084277788387, 0.116346429809, 0.000000000000, 0.000000002247, 0.000000000000, 0.000000000037, 0.036724098924, 0.084277788387, 0.283185569871, 0.162706461628, 0.000000000000, 0.000000000017, 0.000000000000, 0.000000000000, 0.063787946047, 0.116346429809, 0.162706461628, 0.180987958013, 0.000000000005, 0.000000048932, 0.000000000000, 0.000000001833, 0.000000000000, 0.000000000000, 0.000000000000, 0.000000000005, 0.025109570695, 0.016529430751, 0.003483103876, 0.008252316761, 0.000000000000, 0.000000002247, 0.000000000017, 0.000000048932, 0.016529430751, 0.025109570695, 0.007728096052, 0.015750779675, 0.000000000000, 0.000000000000, 0.000000000000, 0.000000000000, 0.003483103876, 0.007728096052, 0.022619763692, 0.014890410596, 0.000000000000, 0.000000000037, 0.000000000000, 0.000000001833, 0.008252316761, 0.015750779675, 0.014890410596, 0.022619763692},
{0.347173522539, 0.216436856522, 0.055388621215, 0.116346429809, 0.000000000000, 0.000000000000, 0.000000000000, 0.000000000000, 0.216436856522, 0.279869903392, 0.116346429809, 0.197725525147, 0.000000000000, 0.000000004170, 0.000000000000, 0.000000000068, 0.055388621215, 0.116346429809, 0.347173522539, 0.216436856522, 0.000000000000, 0.000000000029, 0.000000000000, 0.000000000000, 0.116346429809, 0.197725525147, 0.216436856522, 0.279869903392, 0.000000000009, 0.000000090356, 0.000000000000, 0.000000003383, 0.000000000000, 0.000000000000, 0.000000000000, 0.000000000009, 0.047942296829, 0.031560032830, 0.006645368877, 0.015750779675, 0.000000000000, 0.000000004170, 0.000000000029, 0.000000090356, 0.031560032830, 0.047942296829, 0.014741093757, 0.030050267319, 0.000000000000, 0.000000000000, 0.000000000000, 0.000000000000, 0.006645368877, 0.014741093757, 0.043144658561, 0.028401785702, 0.000000000000, 0.000000000068, 0.000000000000, 0.000000003383, 0.015750779675, 0.030050267319, 0.028401785702, 0.043144658561},
{0.000000000000, 0.000000000000, 0.000000000000, 0.000000000000, 0.000000000000, 0.000000000000, 0.000000000000, 0.000000000000, 0.000000000000, 0.000000000000, 0.000000000000, 0.000000000000, 0.000000000000, 0.000000000000, 0.000000000000, 0.000000000000, 0.000000000000, 0.000000000000, 0.000000000000, 0.000000000000, 0.000000000000, 0.000000000000, 0.000000000000, 0.000000000000, 0.000000000000, 0.000000000000, 0.000000000000, 0.000000000000, 0.000000000000, 0.000000000000, 0.000000000000, 0.000000000000, 0.000000000000, 0.000000000000, 0.000000000000, 0.000000000000, 0.000000000000, 0.000000000000, 0.000000000000, 0.000000000000, 0.000000000000, 0.000000000000, 0.000000000000, 0.000000000000, 0.000000000000, 0.000000000000, 0.000000000000, 0.000000000000, 0.000000000000, 0.000000000000, 0.000000000000, 0.000000000000, 0.000000000000, 0.000000000000, 0.000000000000, 0.000000000000, 0.000000000000, 0.000000000000, 0.000000000000, 0.000000000000, 0.000000000000, 0.000000000000, 0.000000000000, 0.000000000000},
{0.000000005693, 0.000000003748, 0.000000000922, 0.000000001983, 0.000000000000, 0.000000000000, 0.000000000000, 0.000000000000, 0.000000003748, 0.000000005693, 0.000000002247, 0.000000004170, 0.000000000000, 0.000000000000, 0.000000000000, 0.000000000000, 0.000000000922, 0.000000002247, 0.000000006931, 0.000000004562, 0.000000000000, 0.000000000000, 0.000000000000, 0.000000000000, 0.000000001983, 0.000000004170, 0.000000004562, 0.000000006926, 0.000000000000, 0.000000000000, 0.000000000000, 0.000000000000, 0.000000000000, 0.000000000000, 0.000000000000, 0.000000000000, 0.000000005693, 0.000000003748, 0.000000000748, 0.000000001833, 0.000000000000, 0.000000000000, 0.000000000000, 0.000000000000, 0.000000003748, 0.000000005693, 0.000000001607, 0.000000003383, 0.000000000000, 0.000000000000, 0.000000000000, 0.000000000000, 0.000000000748, 0.000000001607, 0.000000004618, 0.000000003040, 0.000000000000, 0.000000000000, 0.000000000000, 0.000000000000, 0.000000001833, 0.000000003383, 0.000000003040, 0.000000004618},
{0.000000000000, 0.000000000000, 0.000000000000, 0.000000000000, 0.000000000000, 0.000000000000, 0.000000000000, 0.000000000000, 0.000000000000, 0.000000000000, 0.000000000000, 0.000000000000, 0.000000000000, 0.000000000000, 0.000000000000, 0.000000000000, 0.000000000000, 0.000000000000, 0.000000000000, 0.000000000000, 0.000000000000, 0.000000000000, 0.000000000000, 0.000000000000, 0.000000000000, 0.000000000000, 0.000000000000, 0.000000000000, 0.000000000000, 0.000000000000, 0.000000000000, 0.000000000000, 0.000000000000, 0.000000000000, 0.000000000000, 0.000000000000, 0.000000000000, 0.000000000000, 0.000000000000, 0.000000000000, 0.000000000000, 0.000000000000, 0.000000000000, 0.000000000000, 0.000000000000, 0.000000000000, 0.000000000000, 0.000000000000, 0.000000000000, 0.000000000000, 0.000000000000, 0.000000000000, 0.000000000000, 0.000000000000, 0.000000000000, 0.000000000000, 0.000000000000, 0.000000000000, 0.000000000000, 0.000000000000, 0.000000000000, 0.000000000000, 0.000000000000, 0.000000000000},
{0.000000000093, 0.000000000061, 0.000000000015, 0.000000000032, 0.000000000000, 0.000000000000, 0.000000000000, 0.000000000000, 0.000000000061, 0.000000000093, 0.000000000037, 0.000000000068, 0.000000000000, 0.000000000000, 0.000000000000, 0.000000000000, 0.000000000015, 0.000000000037, 0.000000000115, 0.000000000075, 0.000000000000, 0.000000000000, 0.000000000000, 0.000000000000, 0.000000000032, 0.000000000068, 0.000000000075, 0.000000000115, 0.000000000000, 0.000000000000, 0.000000000000, 0.000000000000, 0.000000000000, 0.000000000000, 0.000000000000, 0.000000000000, 0.000000000115, 0.000000000075, 0.000000000015, 0.000000000037, 0.000000000000, 0.000000000000, 0.000000000000, 0.000000000000, 0.000000000075, 0.000000000115, 0.000000000032, 0.000000000068, 0.000000000000, 0.000000000000, 0.000000000000, 0.000000000000, 0.000000000015, 0.000000000032, 0.000000000093, 0.000000000061, 0.000000000000, 0.000000000000, 0.000000000000, 0.000000000000, 0.000000000037, 0.000000000068, 0.000000000061, 0.000000000093},
{0.108955414033, 0.064735881982, 0.019489581845, 0.036724098924, 0.000000000000, 0.000000000000, 0.000000000000, 0.000000000000, 0.064735881982, 0.075536255960, 0.036724098924, 0.055388621215, 0.000000000000, 0.000000000922, 0.000000000000, 0.000000000015, 0.019489581845, 0.036724098924, 0.108955414033, 0.064735881982, 0.000000000000, 0.000000000006, 0.000000000000, 0.000000000000, 0.036724098924, 0.055388621215, 0.064735881982, 0.075536255960, 0.000000000002, 0.000000019986, 0.000000000000, 0.000000000748, 0.000000000000, 0.000000000000, 0.000000000000, 0.000000000002, 0.010601779436, 0.006979067112, 0.001469568167, 0.003483103876, 0.000000000000, 0.000000000922, 0.000000000006, 0.000000019986, 0.006979067112, 0.010601779436, 0.003259909152, 0.006645368877, 0.000000000000, 0.000000000000, 0.000000000000, 0.000000000000, 0.001469568167, 0.003259909152, 0.009541250164, 0.006280929124, 0.000000000000, 0.000000000015, 0.000000000000, 0.000000000748, 0.003483103876, 0.006645368877, 0.006280929124, 0.009541250164},
{0.171966559832, 0.108974956192, 0.036724098924, 0.063787946047, 0.000000000000, 0.000000000000, 0.000000000000, 0.000000000000, 0.108974956192, 0.143964299793, 0.084277788387, 0.116346429809, 0.000000000000, 0.000000002247, 0.000000000000, 0.000000000037, 0.036724098924, 0.084277788387, 0.283185569871, 0.162706461628, 0.000000000000, 0.000000000017, 0.000000000000, 0.000000000000, 0.063787946047, 0.116346429809, 0.162706461628, 0.180987958013, 0.000000000005, 0.000000048932, 0.000000000000, 0.000000001833, 0.000000000000, 0.000000000000, 0.000000000000, 0.000000000005, 0.025109570695, 0.016529430751, 0.003483103876, 0.008252316761, 0.000000000000, 0.000000002247, 0.000000000017, 0.000000048932, 0.016529430751, 0.025109570695, 0.007728096052, 0.015750779675, 0.000000000000, 0.000000000000, 0.000000000000, 0.000000000000, 0.003483103876, 0.007728096052, 0.022619763692, 0.014890410596, 0.000000000000, 0.000000000037, 0.000000000000, 0.000000001833, 0.008252316761, 0.015750779675, 0.014890410596, 0.022619763692},
{0.438656142867, 0.285307213648, 0.108955414033, 0.171966559832, 0.000000000000, 0.000000000000, 0.000000000000, 0.000000000000, 0.285307213648, 0.398823087589, 0.283185569871, 0.347173522539, 0.000000000000, 0.000000006931, 0.000000000000, 0.000000000115, 0.108955414033, 0.283185569871, 1.076566111405, 0.578470375451, 0.000000000000, 0.000000000057, 0.000000000000, 0.000000000000, 0.171966559832, 0.347173522539, 0.578470375451, 0.587395893691, 0.000000000014, 0.000000151711, 0.000000000000, 0.000000005693, 0.000000000000, 0.000000000000, 0.000000000000, 0.000000000014, 0.076380150957, 0.050280446102, 0.010601779436, 0.025109570695, 0.000000000000, 0.000000006931, 0.000000000057, 0.000000151711, 0.050280446102, 0.076380150957, 0.023527801188, 0.047942296829, 0.000000000000, 0.000000000000, 0.000000000000, 0.000000000000, 0.010601779436, 0.023527801188, 0.068869662809, 0.045336351468, 0.000000000000, 0.000000000115, 0.000000000000, 0.000000005693, 0.025109570695, 0.047942296829, 0.045336351468, 0.068869662809},
{0.285307213648, 0.184318021754, 0.064735881982, 0.108974956192, 0.000000000000, 0.000000000000, 0.000000000000, 0.000000000000, 0.184318021754, 0.255616972632, 0.162706461628, 0.216436856522, 0.000000000000, 0.000000004562, 0.000000000000, 0.000000000075, 0.064735881982, 0.162706461628, 0.578470375451, 0.329423212228, 0.000000000000, 0.000000000037, 0.000000000000, 0.000000000000, 0.108974956192, 0.216436856522, 0.329423212228, 0.361303849541, 0.000000000009, 0.000000099869, 0.000000000000, 0.000000003748, 0.000000000000, 0.000000000000, 0.000000000000, 0.000000000009, 0.050280446102, 0.033099217906, 0.006979067112, 0.016529430751, 0.000000000000, 0.000000004562, 0.000000000037, 0.000000099869, 0.033099217906, 0.050280446102, 0.015488164460, 0.031560032830, 0.000000000000, 0.000000000000, 0.000000000000, 0.000000000000, 0.006979067112, 0.015488164460, 0.045336351468, 0.029844559717, 0.000000000000, 0.000000000075, 0.000000000000, 0.000000003748, 0.016529430751, 0.031560032830, 0.029844559717, 0.045336351468},
{0.000000000000, 0.000000000000, 0.000000000000, 0.000000000000, 0.000000000000, 0.000000000000, 0.000000000000, 0.000000000000, 0.000000000000, 0.000000000000, 0.000000000000, 0.000000000000, 0.000000000000, 0.000000000000, 0.000000000000, 0.000000000000, 0.000000000000, 0.000000000000, 0.000000000000, 0.000000000000, 0.000000000000, 0.000000000000, 0.000000000000, 0.000000000000, 0.000000000000, 0.000000000000, 0.000000000000, 0.000000000000, 0.000000000000, 0.000000000000, 0.000000000000, 0.000000000000, 0.000000000000, 0.000000000000, 0.000000000000, 0.000000000000, 0.000000000000, 0.000000000000, 0.000000000000, 0.000000000000, 0.000000000000, 0.000000000000, 0.000000000000, 0.000000000000, 0.000000000000, 0.000000000000, 0.000000000000, 0.000000000000, 0.000000000000, 0.000000000000, 0.000000000000, 0.000000000000, 0.000000000000, 0.000000000000, 0.000000000000, 0.000000000000, 0.000000000000, 0.000000000000, 0.000000000000, 0.000000000000, 0.000000000000, 0.000000000000, 0.000000000000, 0.000000000000},
{0.000000000035, 0.000000000023, 0.000000000006, 0.000000000013, 0.000000000000, 0.000000000000, 0.000000000000, 0.000000000000, 0.000000000023, 0.000000000034, 0.000000000017, 0.000000000029, 0.000000000000, 0.000000000000, 0.000000000000, 0.000000000000, 0.000000000006, 0.000000000017, 0.000000000057, 0.000000000037, 0.000000000000, 0.000000000000, 0.000000000000, 0.000000000000, 0.000000000013, 0.000000000029, 0.000000000037, 0.000000000053, 0.000000000000, 0.000000000000, 0.000000000000, 0.000000000000, 0.000000000000, 0.000000000000, 0.000000000000, 0.000000000000, 0.000000000014, 0.000000000009, 0.000000000002, 0.000000000005, 0.000000000000, 0.000000000000, 0.000000000000, 0.000000000000, 0.000000000009, 0.000000000014, 0.000000000004, 0.000000000009, 0.000000000000, 0.000000000000, 0.000000000000, 0.000000000000, 0.000000000002, 0.000000000004, 0.000000000013, 0.000000000008, 0.000000000000, 0.000000000000, 0.000000000000, 0.000000000000, 0.000000000005, 0.000000000009, 0.000000000008, 0.000000000013},
{0.000000000000, 0.000000000000, 0.000000000000, 0.000000000000, 0.000000000000, 0.000000000000, 0.000000000000, 0.000000000000, 0.000000000000, 0.000000000000, 0.000000000000, 0.000000000000, 0.000000000000, 0.000000000000, 0.000000000000, 0.000000000000, 0.000000000000, 0.000000000000, 0.000000000000, 0.000000000000, 0.000000000000, 0.000000000000, 0.000000000000, 0.000000000000, 0.000000000000, 0.000000000000, 0.000000000000, 0.000000000000, 0.000000000000, 0.000000000000, 0.000000000000, 0.000000000000, 0.000000000000, 0.000000000000, 0.000000000000, 0.000000000000, 0.000000000000, 0.000000000000, 0.000000000000, 0.000000000000, 0.000000000000, 0.000000000000, 0.000000000000, 0.000000000000, 0.000000000000, 0.000000000000, 0.000000000000, 0.000000000000, 0.000000000000, 0.000000000000, 0.000000000000, 0.000000000000, 0.000000000000, 0.000000000000, 0.000000000000, 0.000000000000, 0.000000000000, 0.000000000000, 0.000000000000, 0.000000000000, 0.000000000000, 0.000000000000, 0.000000000000, 0.000000000000},
{0.000000000000, 0.000000000000, 0.000000000000, 0.000000000000, 0.000000000000, 0.000000000000, 0.000000000000, 0.000000000000, 0.000000000000, 0.000000000000, 0.000000000000, 0.000000000000, 0.000000000000, 0.000000000000, 0.000000000000, 0.000000000000, 0.000000000000, 0.000000000000, 0.000000000000, 0.000000000000, 0.000000000000, 0.000000000000, 0.000000000000, 0.000000000000, 0.000000000000, 0.000000000000, 0.000000000000, 0.000000000000, 0.000000000000, 0.000000000000, 0.000000000000, 0.000000000000, 0.000000000000, 0.000000000000, 0.000000000000, 0.000000000000, 0.000000000000, 0.000000000000, 0.000000000000, 0.000000000000, 0.000000000000, 0.000000000000, 0.000000000000, 0.000000000000, 0.000000000000, 0.000000000000, 0.000000000000, 0.000000000000, 0.000000000000, 0.000000000000, 0.000000000000, 0.000000000000, 0.000000000000, 0.000000000000, 0.000000000000, 0.000000000000, 0.000000000000, 0.000000000000, 0.000000000000, 0.000000000000, 0.000000000000, 0.000000000000, 0.000000000000, 0.000000000000},
{0.283185569871, 0.162706461628, 0.036724098924, 0.084277788387, 0.000000000000, 0.000000000000, 0.000000000000, 0.000000000000, 0.162706461628, 0.180987958013, 0.063787946047, 0.116346429809, 0.000000000000, 0.000000001983, 0.000000000000, 0.000000000032, 0.036724098924, 0.063787946047, 0.171966559832, 0.108974956192, 0.000000000000, 0.000000000013, 0.000000000000, 0.000000000000, 0.084277788387, 0.116346429809, 0.108974956192, 0.143964299793, 0.000000000004, 0.000000042877, 0.000000000000, 0.000000001607, 0.000000000000, 0.000000000000, 0.000000000000, 0.000000000004, 0.023527801188, 0.015488164460, 0.003259909152, 0.007728096052, 0.000000000000, 0.000000001983, 0.000000000013, 0.000000042877, 0.015488164460, 0.023527801188, 0.007230980434, 0.014741093757, 0.000000000000, 0.000000000000, 0.000000000000, 0.000000000000, 0.003259909152, 0.007230980434, 0.021164827082, 0.013932637394, 0.000000000000, 0.000000000032, 0.000000000000, 0.000000001607, 0.007728096052, 0.014741093757, 0.013932637394, 0.021164827082},
{0.347173522539, 0.216436856522, 0.055388621215, 0.116346429809, 0.000000000000, 0.000000000000, 0.000000000000, 0.000000000000, 0.216436856522, 0.279869903392, 0.116346429809, 0.197725525147, 0.000000000000, 0.000000004170, 0.000000000000, 0.000000000068, 0.055388621215, 0.116346429809, 0.347173522539, 0.216436856522, 0.000000000000, 0.000000000029, 0.000000000000, 0.000000000000, 0.116346429809, 0.197725525147, 0.216436856522, 0.279869903392, 0.000000000009, 0.000000090356, 0.000000000000, 0.000000003383, 0.000000000000, 0.000000000000, 0.000000000000, 0.000000000009, 0.047942296829, 0.031560032830, 0.006645368877, 0.015750779675, 0.000000000000, 0.000000004170, 0.000000000029, 0.000000090356, 0.031560032830, 0.047942296829, 0.014741093757, 0.030050267319, 0.000000000000, 0.000000000000, 0.000000000000, 0.000000000000, 0.006645368877, 0.014741093757, 0.043144658561, 0.028401785702, 0.000000000000, 0.000000000068, 0.000000000000, 0.000000003383, 0.015750779675, 0.030050267319, 0.028401785702, 0.043144658561},
{0.285307213648, 0.184318021754, 0.064735881982, 0.108974956192, 0.000000000000, 0.000000000000, 0.000000000000, 0.000000000000, 0.184318021754, 0.255616972632, 0.162706461628, 0.216436856522, 0.000000000000, 0.000000004562, 0.000000000000, 0.000000000075, 0.064735881982, 0.162706461628, 0.578470375451, 0.329423212228, 0.000000000000, 0.000000000037, 0.000000000000, 0.000000000000, 0.108974956192, 0.216436856522, 0.329423212228, 0.361303849541, 0.000000000009, 0.000000099869, 0.000000000000, 0.000000003748, 0.000000000000, 0.000000000000, 0.000000000000, 0.000000000009, 0.050280446102, 0.033099217906, 0.006979067112, 0.016529430751, 0.000000000000, 0.000000004562, 0.000000000037, 0.000000099869, 0.033099217906, 0.050280446102, 0.015488164460, 0.031560032830, 0.000000000000, 0.000000000000, 0.000000000000, 0.000000000000, 0.006979067112, 0.015488164460, 0.045336351468, 0.029844559717, 0.000000000000, 0.000000000075, 0.000000000000, 0.000000003748, 0.016529430751, 0.031560032830, 0.029844559717, 0.045336351468},
{0.398823087589, 0.255616972632, 0.075536255960, 0.143964299793, 0.000000000000, 0.000000000000, 0.000000000000, 0.000000000000, 0.255616972632, 0.353763562188, 0.180987958013, 0.279869903392, 0.000000000000, 0.000000006926, 0.000000000000, 0.000000000115, 0.075536255960, 0.180987958013, 0.587395893691, 0.361303849541, 0.000000000000, 0.000000000053, 0.000000000000, 0.000000000000, 0.143964299793, 0.279869903392, 0.361303849541, 0.453150386349, 0.000000000014, 0.000000151680, 0.000000000000, 0.000000005693, 0.000000000000, 0.000000000000, 0.000000000000, 0.000000000014, 0.076380150957, 0.050280446102, 0.010601779436, 0.025109570695, 0.000000000000, 0.000000006926, 0.000000000053, 0.000000151680, 0.050280446102, 0.076380150957, 0.023527801188, 0.047942296829, 0.000000000000, 0.000000000000, 0.000000000000, 0.000000000000, 0.010601779436, 0.023527801188, 0.068869662809, 0.045336351468, 0.000000000000, 0.000000000115, 0.000000000000, 0.000000005693, 0.025109570695, 0.047942296829, 0.045336351468, 0.068869662809},
{0.000000000013, 0.000000000008, 0.000000000002, 0.000000000004, 0.000000000000, 0.000000000000, 0.000000000000, 0.000000000000, 0.000000000008, 0.000000000013, 0.000000000005, 0.000000000009, 0.000000000000, 0.000000000000, 0.000000000000, 0.000000000000, 0.000000000002, 0.000000000005, 0.000000000014, 0.000000000009, 0.000000000000, 0.000000000000, 0.000000000000, 0.000000000000, 0.000000000004, 0.000000000009, 0.000000000009, 0.000000000014, 0.000000000000, 0.000000000000, 0.000000000000, 0.000000000000, 0.000000000000, 0.000000000000, 0.000000000000, 0.000000000000, 0.000000000057, 0.000000000037, 0.000000000006, 0.000000000017, 0.000000000000, 0.000000000000, 0.000000000000, 0.000000000000, 0.000000000037, 0.000000000053, 0.000000000013, 0.000000000029, 0.000000000000, 0.000000000000, 0.000000000000, 0.000000000000, 0.000000000006, 0.000000000013, 0.000000000035, 0.000000000023, 0.000000000000, 0.000000000000, 0.000000000000, 0.000000000000, 0.000000000017, 0.000000000029, 0.000000000023, 0.000000000034},
{0.000000123054, 0.000000081005, 0.000000019986, 0.000000042877, 0.000000000000, 0.000000000000, 0.000000000000, 0.000000000000, 0.000000081005, 0.000000123053, 0.000000048932, 0.000000090356, 0.000000000000, 0.000000000000, 0.000000000000, 0.000000000000, 0.000000019986, 0.000000048932, 0.000000151711, 0.000000099869, 0.000000000000, 0.000000000000, 0.000000000000, 0.000000000000, 0.000000042877, 0.000000090356, 0.000000099869, 0.000000151680, 0.000000000000, 0.000000000000, 0.000000000000, 0.000000000000, 0.000000000000, 0.000000000000, 0.000000000000, 0.000000000000, 0.000000151711, 0.000000099869, 0.000000019986, 0.000000048932, 0.000000000000, 0.000000000000, 0.000000000000, 0.000000000000, 0.000000099869, 0.000000151680, 0.000000042877, 0.000000090356, 0.000000000000, 0.000000000000, 0.000000000000, 0.000000000000, 0.000000019986, 0.000000042877, 0.000000123054, 0.000000081005, 0.000000000000, 0.000000000000, 0.000000000000, 0.000000000000, 0.000000048932, 0.000000090356, 0.000000081005, 0.000000123053},
{0.000000000000, 0.000000000000, 0.000000000000, 0.000000000000, 0.000000000000, 0.000000000000, 0.000000000000, 0.000000000000, 0.000000000000, 0.000000000000, 0.000000000000, 0.000000000000, 0.000000000000, 0.000000000000, 0.000000000000, 0.000000000000, 0.000000000000, 0.000000000000, 0.000000000000, 0.000000000000, 0.000000000000, 0.000000000000, 0.000000000000, 0.000000000000, 0.000000000000, 0.000000000000, 0.000000000000, 0.000000000000, 0.000000000000, 0.000000000000, 0.000000000000, 0.000000000000, 0.000000000000, 0.000000000000, 0.000000000000, 0.000000000000, 0.000000000000, 0.000000000000, 0.000000000000, 0.000000000000, 0.000000000000, 0.000000000000, 0.000000000000, 0.000000000000, 0.000000000000, 0.000000000000, 0.000000000000, 0.000000000000, 0.000000000000, 0.000000000000, 0.000000000000, 0.000000000000, 0.000000000000, 0.000000000000, 0.000000000000, 0.000000000000, 0.000000000000, 0.000000000000, 0.000000000000, 0.000000000000, 0.000000000000, 0.000000000000, 0.000000000000, 0.000000000000},
{0.000000004618, 0.000000003040, 0.000000000748, 0.000000001607, 0.000000000000, 0.000000000000, 0.000000000000, 0.000000000000, 0.000000003040, 0.000000004618, 0.000000001833, 0.000000003383, 0.000000000000, 0.000000000000, 0.000000000000, 0.000000000000, 0.000000000748, 0.000000001833, 0.000000005693, 0.000000003748, 0.000000000000, 0.000000000000, 0.000000000000, 0.000000000000, 0.000000001607, 0.000000003383, 0.000000003748, 0.000000005693, 0.000000000000, 0.000000000000, 0.000000000000, 0.000000000000, 0.000000000000, 0.000000000000, 0.000000000000, 0.000000000000, 0.000000006931, 0.000000004562, 0.000000000922, 0.000000002247, 0.000000000000, 0.000000000000, 0.000000000000, 0.000000000000, 0.000000004562, 0.000000006926, 0.000000001983, 0.000000004170, 0.000000000000, 0.000000000000, 0.000000000000, 0.000000000000, 0.000000000922, 0.000000001983, 0.000000005693, 0.000000003748, 0.000000000000, 0.000000000000, 0.000000000000, 0.000000000000, 0.000000002247, 0.000000004170, 0.000000003748, 0.000000005693},
{0.000000000000, 0.000000000000, 0.000000000000, 0.000000000000, 0.000000000000, 0.000000000000, 0.000000000000, 0.000000000000, 0.000000000000, 0.000000000000, 0.000000000000, 0.000000000000, 0.000000000000, 0.000000000000, 0.000000000000, 0.000000000000, 0.000000000000, 0.000000000000, 0.000000000000, 0.000000000000, 0.000000000000, 0.000000000000, 0.000000000000, 0.000000000000, 0.000000000000, 0.000000000000, 0.000000000000, 0.000000000000, 0.000000000000, 0.000000000000, 0.000000000000, 0.000000000000, 0.000000000000, 0.000000000000, 0.000000000000, 0.000000000000, 0.000000000000, 0.000000000000, 0.000000000000, 0.000000000000, 0.000000000000, 0.000000000000, 0.000000000000, 0.000000000000, 0.000000000000, 0.000000000000, 0.000000000000, 0.000000000000, 0.000000000000, 0.000000000000, 0.000000000000, 0.000000000000, 0.000000000000, 0.000000000000, 0.000000000000, 0.000000000000, 0.000000000000, 0.000000000000, 0.000000000000, 0.000000000000, 0.000000000000, 0.000000000000, 0.000000000000, 0.000000000000},
{0.000000000000, 0.000000000000, 0.000000000000, 0.000000000000, 0.000000000000, 0.000000000000, 0.000000000000, 0.000000000000, 0.000000000000, 0.000000000000, 0.000000000000, 0.000000000000, 0.000000000000, 0.000000000000, 0.000000000000, 0.000000000000, 0.000000000000, 0.000000000000, 0.000000000000, 0.000000000000, 0.000000000000, 0.000000000000, 0.000000000000, 0.000000000000, 0.000000000000, 0.000000000000, 0.000000000000, 0.000000000000, 0.000000000000, 0.000000000000, 0.000000000000, 0.000000000000, 0.000000000000, 0.000000000000, 0.000000000000, 0.000000000000, 0.000000000000, 0.000000000000, 0.000000000000, 0.000000000000, 0.000000000000, 0.000000000000, 0.000000000000, 0.000000000000, 0.000000000000, 0.000000000000, 0.000000000000, 0.000000000000, 0.000000000000, 0.000000000000, 0.000000000000, 0.000000000000, 0.000000000000, 0.000000000000, 0.000000000000, 0.000000000000, 0.000000000000, 0.000000000000, 0.000000000000, 0.000000000000, 0.000000000000, 0.000000000000, 0.000000000000, 0.000000000000},
{0.000000000000, 0.000000000000, 0.000000000000, 0.000000000000, 0.000000000000, 0.000000000000, 0.000000000000, 0.000000000000, 0.000000000000, 0.000000000000, 0.000000000000, 0.000000000000, 0.000000000000, 0.000000000000, 0.000000000000, 0.000000000000, 0.000000000000, 0.000000000000, 0.000000000000, 0.000000000000, 0.000000000000, 0.000000000000, 0.000000000000, 0.000000000000, 0.000000000000, 0.000000000000, 0.000000000000, 0.000000000000, 0.000000000000, 0.000000000000, 0.000000000000, 0.000000000000, 0.000000000000, 0.000000000000, 0.000000000000, 0.000000000000, 0.000000000000, 0.000000000000, 0.000000000000, 0.000000000000, 0.000000000000, 0.000000000000, 0.000000000000, 0.000000000000, 0.000000000000, 0.000000000000, 0.000000000000, 0.000000000000, 0.000000000000, 0.000000000000, 0.000000000000, 0.000000000000, 0.000000000000, 0.000000000000, 0.000000000000, 0.000000000000, 0.000000000000, 0.000000000000, 0.000000000000, 0.000000000000, 0.000000000000, 0.000000000000, 0.000000000000, 0.000000000000},
{0.000000000013, 0.000000000008, 0.000000000002, 0.000000000004, 0.000000000000, 0.000000000000, 0.000000000000, 0.000000000000, 0.000000000008, 0.000000000013, 0.000000000005, 0.000000000009, 0.000000000000, 0.000000000000, 0.000000000000, 0.000000000000, 0.000000000002, 0.000000000005, 0.000000000014, 0.000000000009, 0.000000000000, 0.000000000000, 0.000000000000, 0.000000000000, 0.000000000004, 0.000000000009, 0.000000000009, 0.000000000014, 0.000000000000, 0.000000000000, 0.000000000000, 0.000000000000, 0.000000000000, 0.000000000000, 0.000000000000, 0.000000000000, 0.000000000057, 0.000000000037, 0.000000000006, 0.000000000017, 0.000000000000, 0.000000000000, 0.000000000000, 0.000000000000, 0.000000000037, 0.000000000053, 0.000000000013, 0.000000000029, 0.000000000000, 0.000000000000, 0.000000000000, 0.000000000000, 0.000000000006, 0.000000000013, 0.000000000035, 0.000000000023, 0.000000000000, 0.000000000000, 0.000000000000, 0.000000000000, 0.000000000017, 0.000000000029, 0.000000000023, 0.000000000034},
{0.068869662809, 0.045336351468, 0.010601779436, 0.023527801188, 0.000000000000, 0.000000000000, 0.000000000000, 0.000000000000, 0.045336351468, 0.068869662809, 0.025109570695, 0.047942296829, 0.000000000000, 0.000000005693, 0.000000000000, 0.000000000115, 0.010601779436, 0.025109570695, 0.076380150957, 0.050280446102, 0.000000000000, 0.000000000014, 0.000000000000, 0.000000000000, 0.023527801188, 0.047942296829, 0.050280446102, 0.076380150957, 0.000000000057, 0.000000151711, 0.000000000000, 0.000000006931, 0.000000000000, 0.000000000000, 0.000000000000, 0.000000000057, 1.076566111405, 0.578470375451, 0.108955414033, 0.283185569871, 0.000000000000, 0.000000005693, 0.000000000014, 0.000000151711, 0.578470375451, 0.587395893691, 0.171966559832, 0.347173522539, 0.000000000000, 0.000000000000, 0.000000000000, 0.000000000000, 0.108955414033, 0.171966559832, 0.438656142867, 0.285307213648, 0.000000000000, 0.000000000115, 0.000000000000, 0.000000006931, 0.283185569871, 0.347173522539, 0.285307213648, 0.398823087589},
{0.045336351468, 0.029844559717, 0.006979067112, 0.015488164460, 0.000000000000, 0.000000000000, 0.000000000000, 0.000000000000, 0.029844559717, 0.045336351468, 0.016529430751, 0.031560032830, 0.000000000000, 0.000000003748, 0.000000000000, 0.000000000075, 0.006979067112, 0.016529430751, 0.050280446102, 0.033099217906, 0.000000000000, 0.000000000009, 0.000000000000, 0.000000000000, 0.015488164460, 0.031560032830, 0.033099217906, 0.050280446102, 0.000000000037, 0.000000099869, 0.000000000000, 0.000000004562, 0.000000000000, 0.000000000000, 0.000000000000, 0.000000000037, 0.578470375451, 0.329423212228, 0.064735881982, 0.162706461628, 0.000000000000, 0.000000003748, 0.000000000009, 0.000000099869, 0.329423212228, 0.361303849541, 0.108974956192, 0.216436856522, 0.000000000000, 0.000000000000, 0.000000000000, 0.000000000000, 0.064735881982, 0.108974956192, 0.285307213648, 0.184318021754, 0.000000000000, 0.000000000075, 0.000000000000, 0.000000004562, 0.162706461628, 0.216436856522, 0.184318021754, 0.255616972632},
{0.009541250164, 0.006280929124, 0.001469568167, 0.003259909152, 0.000000000000, 0.000000000000, 0.000000000000, 0.000000000000, 0.006280929124, 0.009541250164, 0.003483103876, 0.006645368877, 0.000000000000, 0.000000000748, 0.000000000000, 0.000000000015, 0.001469568167, 0.003483103876, 0.010601779436, 0.006979067112, 0.000000000000, 0.000000000002, 0.000000000000, 0.000000000000, 0.003259909152, 0.006645368877, 0.006979067112, 0.010601779436, 0.000000000006, 0.000000019986, 0.000000000000, 0.000000000922, 0.000000000000, 0.000000000000, 0.000000000000, 0.000000000006, 0.108955414033, 0.064735881982, 0.019489581845, 0.036724098924, 0.000000000000, 0.000000000748, 0.000000000002, 0.000000019986, 0.064735881982, 0.075536255960, 0.036724098924, 0.055388621215, 0.000000000000, 0.000000000000, 0.000000000000, 0.000000000000, 0.019489581845, 0.036724098924, 0.108955414033, 0.064735881982, 0.000000000000, 0.000000000015, 0.000000000000, 0.000000000922, 0.036724098924, 0.055388621215, 0.064735881982, 0.075536255960},
{0.022619763692, 0.014890410596, 0.003483103876, 0.007728096052, 0.000000000000, 0.000000000000, 0.000000000000, 0.000000000000, 0.014890410596, 0.022619763692, 0.008252316761, 0.015750779675, 0.000000000000, 0.000000001833, 0.000000000000, 0.000000000037, 0.003483103876, 0.008252316761, 0.025109570695, 0.016529430751, 0.000000000000, 0.000000000005, 0.000000000000, 0.000000000000, 0.007728096052, 0.015750779675, 0.016529430751, 0.025109570695, 0.000000000017, 0.000000048932, 0.000000000000, 0.000000002247, 0.000000000000, 0.000000000000, 0.000000000000, 0.000000000017, 0.283185569871, 0.162706461628, 0.036724098924, 0.084277788387, 0.000000000000, 0.000000001833, 0.000000000005, 0.000000048932, 0.162706461628, 0.180987958013, 0.063787946047, 0.116346429809, 0.000000000000, 0.000000000000, 0.000000000000, 0.000000000000, 0.036724098924, 0.063787946047, 0.171966559832, 0.108974956192, 0.000000000000, 0.000000000037, 0.000000000000, 0.000000002247, 0.084277788387, 0.116346429809, 0.108974956192, 0.143964299793},
{0.000000000000, 0.000000000000, 0.000000000000, 0.000000000000, 0.000000000000, 0.000000000000, 0.000000000000, 0.000000000000, 0.000000000000, 0.000000000000, 0.000000000000, 0.000000000000, 0.000000000000, 0.000000000000, 0.000000000000, 0.000000000000, 0.000000000000, 0.000000000000, 0.000000000000, 0.000000000000, 0.000000000000, 0.000000000000, 0.000000000000, 0.000000000000, 0.000000000000, 0.000000000000, 0.000000000000, 0.000000000000, 0.000000000000, 0.000000000000, 0.000000000000, 0.000000000000, 0.000000000000, 0.000000000000, 0.000000000000, 0.000000000000, 0.000000000000, 0.000000000000, 0.000000000000, 0.000000000000, 0.000000000000, 0.000000000000, 0.000000000000, 0.000000000000, 0.000000000000, 0.000000000000, 0.000000000000, 0.000000000000, 0.000000000000, 0.000000000000, 0.000000000000, 0.000000000000, 0.000000000000, 0.000000000000, 0.000000000000, 0.000000000000, 0.000000000000, 0.000000000000, 0.000000000000, 0.000000000000, 0.000000000000, 0.000000000000, 0.000000000000, 0.000000000000},
{0.000000005693, 0.000000003748, 0.000000000922, 0.000000001983, 0.000000000000, 0.000000000000, 0.000000000000, 0.000000000000, 0.000000003748, 0.000000005693, 0.000000002247, 0.000000004170, 0.000000000000, 0.000000000000, 0.000000000000, 0.000000000000, 0.000000000922, 0.000000002247, 0.000000006931, 0.000000004562, 0.000000000000, 0.000000000000, 0.000000000000, 0.000000000000, 0.000000001983, 0.000000004170, 0.000000004562, 0.000000006926, 0.000000000000, 0.000000000000, 0.000000000000, 0.000000000000, 0.000000000000, 0.000000000000, 0.000000000000, 0.000000000000, 0.000000005693, 0.000000003748, 0.000000000748, 0.000000001833, 0.000000000000, 0.000000000000, 0.000000000000, 0.000000000000, 0.000000003748, 0.000000005693, 0.000000001607, 0.000000003383, 0.000000000000, 0.000000000000, 0.000000000000, 0.000000000000, 0.000000000748, 0.000000001607, 0.000000004618, 0.000000003040, 0.000000000000, 0.000000000000, 0.000000000000, 0.000000000000, 0.000000001833, 0.000000003383, 0.000000003040, 0.000000004618},
{0.000000000035, 0.000000000023, 0.000000000006, 0.000000000013, 0.000000000000, 0.000000000000, 0.000000000000, 0.000000000000, 0.000000000023, 0.000000000034, 0.000000000017, 0.000000000029, 0.000000000000, 0.000000000000, 0.000000000000, 0.000000000000, 0.000000000006, 0.000000000017, 0.000000000057, 0.000000000037, 0.000000000000, 0.000000000000, 0.000000000000, 0.000000000000, 0.000000000013, 0.000000000029, 0.000000000037, 0.000000000053, 0.000000000000, 0.000000000000, 0.000000000000, 0.000000000000, 0.000000000000, 0.000000000000, 0.000000000000, 0.000000000000, 0.000000000014, 0.000000000009, 0.000000000002, 0.000000000005, 0.000000000000, 0.000000000000, 0.000000000000, 0.000000000000, 0.000000000009, 0.000000000014, 0.000000000004, 0.000000000009, 0.000000000000, 0.000000000000, 0.000000000000, 0.000000000000, 0.000000000002, 0.000000000004, 0.000000000013, 0.000000000008, 0.000000000000, 0.000000000000, 0.000000000000, 0.000000000000, 0.000000000005, 0.000000000009, 0.000000000008, 0.000000000013},
{0.000000123054, 0.000000081005, 0.000000019986, 0.000000042877, 0.000000000000, 0.000000000000, 0.000000000000, 0.000000000000, 0.000000081005, 0.000000123053, 0.000000048932, 0.000000090356, 0.000000000000, 0.000000000000, 0.000000000000, 0.000000000000, 0.000000019986, 0.000000048932, 0.000000151711, 0.000000099869, 0.000000000000, 0.000000000000, 0.000000000000, 0.000000000000, 0.000000042877, 0.000000090356, 0.000000099869, 0.000000151680, 0.000000000000, 0.000000000000, 0.000000000000, 0.000000000000, 0.000000000000, 0.000000000000, 0.000000000000, 0.000000000000, 0.000000151711, 0.000000099869, 0.000000019986, 0.000000048932, 0.000000000000, 0.000000000000, 0.000000000000, 0.000000000000, 0.000000099869, 0.000000151680, 0.000000042877, 0.000000090356, 0.000000000000, 0.000000000000, 0.000000000000, 0.000000000000, 0.000000019986, 0.000000042877, 0.000000123054, 0.000000081005, 0.000000000000, 0.000000000000, 0.000000000000, 0.000000000000, 0.000000048932, 0.000000090356, 0.000000081005, 0.000000123053},
{0.045336351468, 0.029844559717, 0.006979067112, 0.015488164460, 0.000000000000, 0.000000000000, 0.000000000000, 0.000000000000, 0.029844559717, 0.045336351468, 0.016529430751, 0.031560032830, 0.000000000000, 0.000000003748, 0.000000000000, 0.000000000075, 0.006979067112, 0.016529430751, 0.050280446102, 0.033099217906, 0.000000000000, 0.000000000009, 0.000000000000, 0.000000000000, 0.015488164460, 0.031560032830, 0.033099217906, 0.050280446102, 0.000000000037, 0.000000099869, 0.000000000000, 0.000000004562, 0.000000000000, 0.000000000000, 0.000000000000, 0.000000000037, 0.578470375451, 0.329423212228, 0.064735881982, 0.162706461628, 0.000000000000, 0.000000003748, 0.000000000009, 0.000000099869, 0.329423212228, 0.361303849541, 0.108974956192, 0.216436856522, 0.000000000000, 0.000000000000, 0.000000000000, 0.000000000000, 0.064735881982, 0.108974956192, 0.285307213648, 0.184318021754, 0.000000000000, 0.000000000075, 0.000000000000, 0.000000004562, 0.162706461628, 0.216436856522, 0.184318021754, 0.255616972632},
{0.068869662809, 0.045336351468, 0.010601779436, 0.023527801188, 0.000000000000, 0.000000000000, 0.000000000000, 0.000000000000, 0.045336351468, 0.068869662809, 0.025109570695, 0.047942296829, 0.000000000000, 0.000000005693, 0.000000000000, 0.000000000115, 0.010601779436, 0.025109570695, 0.076380150957, 0.050280446102, 0.000000000000, 0.000000000014, 0.000000000000, 0.000000000000, 0.023527801188, 0.047942296829, 0.050280446102, 0.076380150957, 0.000000000053, 0.000000151680, 0.000000000000, 0.000000006926, 0.000000000000, 0.000000000000, 0.000000000000, 0.000000000053, 0.587395893691, 0.361303849541, 0.075536255960, 0.180987958013, 0.000000000000, 0.000000005693, 0.000000000014, 0.000000151680, 0.361303849541, 0.453150386349, 0.143964299793, 0.279869903392, 0.000000000000, 0.000000000000, 0.000000000000, 0.000000000000, 0.075536255960, 0.143964299793, 0.398823087589, 0.255616972632, 0.000000000000, 0.000000000115, 0.000000000000, 0.000000006926, 0.180987958013, 0.279869903392, 0.255616972632, 0.353763562188},
{0.021164827082, 0.013932637394, 0.003259909152, 0.007230980434, 0.000000000000, 0.000000000000, 0.000000000000, 0.000000000000, 0.013932637394, 0.021164827082, 0.007728096052, 0.014741093757, 0.000000000000, 0.000000001607, 0.000000000000, 0.000000000032, 0.003259909152, 0.007728096052, 0.023527801188, 0.015488164460, 0.000000000000, 0.000000000004, 0.000000000000, 0.000000000000, 0.007230980434, 0.014741093757, 0.015488164460, 0.023527801188, 0.000000000013, 0.000000042877, 0.000000000000, 0.000000001983, 0.000000000000, 0.000000000000, 0.000000000000, 0.000000000013, 0.171966559832, 0.108974956192, 0.036724098924, 0.063787946047, 0.000000000000, 0.000000001607, 0.000000000004, 0.000000042877, 0.108974956192, 0.143964299793, 0.084277788387, 0.116346429809, 0.000000000000, 0.000000000000, 0.000000000000, 0.000000000000, 0.036724098924, 0.084277788387, 0.283185569871, 0.162706461628, 0.000000000000, 0.000000000032, 0.000000000000, 0.000000001983, 0.063787946047, 0.116346429809, 0.162706461628, 0.180987958013},
{0.043144658561, 0.028401785702, 0.006645368877, 0.014741093757, 0.000000000000, 0.000000000000, 0.000000000000, 0.000000000000, 0.028401785702, 0.043144658561, 0.015750779675, 0.030050267319, 0.000000000000, 0.000000003383, 0.000000000000, 0.000000000068, 0.006645368877, 0.015750779675, 0.047942296829, 0.031560032830, 0.000000000000, 0.000000000009, 0.000000000000, 0.000000000000, 0.014741093757, 0.030050267319, 0.031560032830, 0.047942296829, 0.000000000029, 0.000000090356, 0.000000000000, 0.000000004170, 0.000000000000, 0.000000000000, 0.000000000000, 0.000000000029, 0.347173522539, 0.216436856522, 0.055388621215, 0.116346429809, 0.000000000000, 0.000000003383, 0.000000000009, 0.000000090356, 0.216436856522, 0.279869903392, 0.116346429809, 0.197725525147, 0.000000000000, 0.000000000000, 0.000000000000, 0.000000000000, 0.055388621215, 0.116346429809, 0.347173522539, 0.216436856522, 0.000000000000, 0.000000000068, 0.000000000000, 0.000000004170, 0.116346429809, 0.197725525147, 0.216436856522, 0.279869903392},
[...]
   30     1.31415498637824    -1.31415334426581     0.78456010450004    -0.78456113092536     1.04930902650786
   31     2.78068368382109    -2.78067967395271     1.89187937367227    -1.89188202480138     2.42055268744745
   32     0.00000000000000     0.00000000000000     0.00000000000000     0.00000000000000     0.00000000000000
   33     0.00000000899651     0.00000000899643     0.00000000000008     0.00000000000008     0.00000000048702
   34     0.05414522085508    -0.05414549611088     0.16301096827843    -0.16301116528246     0.13486992605218
   35     0.00000000000000     0.00000000000000     0.00000000000000     0.00000000000000     0.00000000000000
   36     0.00000002061447     0.00000002061427     0.00000000000016     0.00000000000016     0.00000000111559
   37     0.10525526710385    -0.10525580584843     0.33121798856188    -0.33121841652594     0.26793401064261
   38    -0.01363914388562     0.01363918204979    -0.07335502308612     0.07335512316014    -0.03632273023029
   39     0.00000000000000     0.00000000000000     0.00000000000000     0.00000000000000     0.00000000000000
   40     0.00000000000000     0.00000000000000     0.00000000000000     0.00000000000000     0.00000000000000
   41    -0.02362368447314     0.02362376199236    -0.12705462697545     0.12705480030894    -0.06291281385575
   42    -0.00000000406585    -0.00000000406581     0.00000000000001     0.00000000000001    -0.00000000018538
   43     0.36751881983936    -0.36751867428617     0.61593191616656    -0.61593287846262     0.48315620577948
   44     1.04929924593355    -1.04929868461253     1.43708186134753    -1.43708412931742     1.31420018224365
   45     2.42051380013877    -2.42051173466575     2.54888705507224    -2.54889108354182     2.78077295000257
   46     0.00000000000000     0.00000000000000     0.00000000000000     0.00000000000000     0.00000000000000
   47     0.00000000480089     0.00000000480085     0.00000000000003     0.00000000000004     0.00000000026988
   48    -0.13486540218824     0.13486526870836    -0.03630446153478     0.03630431653117    -0.05413908116448
   49     0.00000000000000     0.00000000000000     0.00000000000000     0.00000000000000     0.00000000000000
   50     0.00000001100159     0.00000001100148     0.00000000000008     0.00000000000008     0.00000000061845
   51    -0.26792378631437     0.26792347532980    -0.05796447885129     0.05796425428497    -0.10524335115364
   52    -0.03632059660956     0.03632055660768    -0.00661657874997     0.00661657829790    -0.01363808160261
   53     0.00000000000000     0.00000000000000     0.00000000000000     0.00000000000000     0.00000000000000
   54     0.00000000000000     0.00000000000000     0.00000000000000     0.00000000000000     0.00000000000000
   55    -0.06290911668373     0.06290905140891    -0.01146025056719     0.01146024978426    -0.02362185011377
   56    -0.00000000227895    -0.00000000227893    -0.00000000000004    -0.00000000000004    -0.00000000012875

                16

    1    -0.04584604655271
    2    -0.14108082167973
    3    -0.39294647447568
    4     0.00000000000000
    5     0.00298859386413
    6    -0.00322262367316
    7     0.00000000000000
    8     0.00684858206978
    9    -0.00738487854456
   10     0.00041309218784
   11     0.00000000000000
   12     0.00000000000000
   13     0.00005235453489
   14     0.00071222971267
   15    -0.05095116372242
   16    -0.15679066318691
   17    -0.43670243479302
   18     0.00000000000000
   19     0.00410193978046
   20    -0.00355333735186
   21     0.00000000000000
   22     0.00939989590723
   23    -0.00814273319903
   24     0.00056698210768
   25     0.00000000000000
   26     0.00000000000000
   27    -0.00014191590176
   28     0.00096889157079
   29    -0.36752116823980
   30    -1.04930959953840
   31    -2.42055433563728
   32     0.00000000000000
   33     0.00000000048702
   34    -0.13487012200430
   35     0.00000000000000
   36     0.00000000111558
   37    -0.26793442409532
   38     0.03632281510273
   39     0.00000000000000
   40     0.00000000000000
   41     0.06291296160458
   42    -0.00000000018538
   43    -0.48315686078347
   44    -1.31420193042963
   45    -2.78077642919223
   46     0.00000000000000
   47     0.00000000026988
   48     0.05413886679661
   49     0.00000000000000
   50     0.00000000061844
   51     0.10524293587221
   52     0.01363807399614
   53     0.00000000000000
   54     0.00000000000000
   55     0.02362183721841
   56    -0.00000000012875



  ## Aia (Symmetry 0) ##
  Irrep: 1 Size: 56 x 12

                 1                   2                   3                   4                   5

    1     0.12775949327798     0.13262625880891     0.14857617688684     0.14856092640193     0.14080139703765
    2     0.26962916612219     0.28460556032679     0.26967637071389     0.26961644077544     0.21966837351125
    3     0.32464623216168     0.36636043815793     0.30344198412833     0.30324637938625     0.14616886691192
    4     0.00000000000000     0.00000000000000     0.00000000000000     0.00000000000000     0.00000000000000
    5     0.00050482389860    -0.00050482591598    -0.00000716461054     0.00000716432625    -0.00000619120125
    6    -0.07482176190944    -0.07446749693010     0.03556587993830     0.03556853092807    -0.01908639220865
    7     0.00000000000000     0.00000000000000     0.00000000000000     0.00000000000000     0.00000000000000
    8     0.00115684099529    -0.00115684561827    -0.00001641823062     0.00001641757916    -0.00001418759180
    9    -0.15326756451275    -0.15245562051165     0.06740948621122     0.06741528894782    -0.05033552680933
   10     0.02527997448464     0.02514073321791    -0.02705334563944    -0.02704970328479     0.02600097081243
   11     0.00000000000000     0.00000000000000     0.00000000000000     0.00000000000000     0.00000000000000
   12     0.00000000000000     0.00000000000000     0.00000000000000     0.00000000000000     0.00000000000000
   13     0.04358825093351     0.04374297599155    -0.04685313519628    -0.04685609494344     0.04503762315838
   14     0.00012169766009    -0.00012169661916    -0.00000104953654     0.00000105063724    -0.00000135811156
   15    -0.13284221791525    -0.12755989358585     0.14855717611300     0.14853641561554    -0.14074107263986
   16    -0.28526406800465    -0.26900672678354     0.26963796597487     0.26958726809644    -0.21948324201166
   17    -0.36817338944188    -0.32288642005823     0.30337849675985     0.30326719036549    -0.14565698335236
   18     0.00000000000000     0.00000000000000     0.00000000000000     0.00000000000000     0.00000000000000
   19     0.00067556385092    -0.00067556331387    -0.00000763735944     0.00000763951517    -0.00000794589826
   20    -0.07472161185130    -0.07455349626545    -0.03557671628844    -0.03556521403917    -0.01908810750373
   21     0.00000000000000     0.00000000000000     0.00000000000000     0.00000000000000     0.00000000000000
   22     0.00154810411768    -0.00154810288904    -0.00001750157119     0.00001750651052    -0.00001820860609
   23    -0.15304177442840    -0.15265667118980    -0.06743372745016    -0.06740769607382    -0.05034043283335
   24    -0.02511586392255    -0.02530258754624    -0.02705544776669    -0.02705495960717    -0.02600227315936
   25     0.00000000000000     0.00000000000000     0.00000000000000     0.00000000000000     0.00000000000000
   26     0.00000000000000     0.00000000000000     0.00000000000000     0.00000000000000     0.00000000000000
   27    -0.04382841425324    -0.04349890941287    -0.04685476674688    -0.04686721142228    -0.04503317586165
   28     0.00012855497621    -0.00012855210845     0.00000070713064    -0.00000070451738    -0.00000117188598
   29    -0.13284221791525     0.12755989358585     0.14855717611300    -0.14853641561554    -0.14074107263986
   30    -0.28526406800464     0.26900672678354     0.26963796597487    -0.26958726809644    -0.21948324201166
   31    -0.36817338944188     0.32288642005823     0.30337849675985    -0.30326719036549    -0.14565698335236
   32     0.00000000000000     0.00000000000000     0.00000000000000     0.00000000000000     0.00000000000000
   33    -0.00067556385092    -0.00067556331387     0.00000763735944     0.00000763951517     0.00000794589826
   34     0.07472161185130    -0.07455349626545     0.03557671628844    -0.03556521403917     0.01908810750373
   35     0.00000000000000     0.00000000000000     0.00000000000000     0.00000000000000     0.00000000000000
   36    -0.00154810411768    -0.00154810288904     0.00001750157119     0.00001750651052     0.00001820860609
   37     0.15304177442840    -0.15265667118980     0.06743372745016    -0.06740769607382     0.05034043283335
   38    -0.02511586392255     0.02530258754624    -0.02705544776669     0.02705495960717    -0.02600227315936
   39     0.00000000000000     0.00000000000000     0.00000000000000     0.00000000000000     0.00000000000000
   40     0.00000000000000     0.00000000000000     0.00000000000000     0.00000000000000     0.00000000000000
   41    -0.04382841425324     0.04349890941287    -0.04685476674688     0.04686721142228    -0.04503317586165
   42     0.00012855497621     0.00012855210845     0.00000070713064     0.00000070451738    -0.00000117188598
   43     0.12775949327798    -0.13262625880891     0.14857617688684    -0.14856092640193     0.14080139703765
   44     0.26962916612219    -0.28460556032679     0.26967637071388    -0.26961644077544     0.21966837351125
   45     0.32464623216168    -0.36636043815793     0.30344198412833    -0.30324637938625     0.14616886691192
   46     0.00000000000000     0.00000000000000     0.00000000000000     0.00000000000000     0.00000000000000
   47    -0.00050482389860    -0.00050482591598     0.00000716461054     0.00000716432625     0.00000619120125
   48     0.07482176190944    -0.07446749693010    -0.03556587993830     0.03556853092807     0.01908639220865
   49     0.00000000000000     0.00000000000000     0.00000000000000     0.00000000000000     0.00000000000000
   50    -0.00115684099529    -0.00115684561827     0.00001641823062     0.00001641757916     0.00001418759180
   51     0.15326756451275    -0.15245562051165    -0.06740948621122     0.06741528894782     0.05033552680933
   52     0.02527997448464    -0.02514073321791    -0.02705334563944     0.02704970328479     0.02600097081243
   53     0.00000000000000     0.00000000000000     0.00000000000000     0.00000000000000     0.00000000000000
   54     0.00000000000000     0.00000000000000     0.00000000000000     0.00000000000000     0.00000000000000
   55     0.04358825093351    -0.04374297599155    -0.04685313519628     0.04685609494344     0.04503762315838
   56     0.00012169766009     0.00012169661916    -0.00000104953654    -0.00000105063724    -0.00000135811156

                 6                   7                   8                   9                  10

    1     0.14073512148949     0.13262761842888     0.12775931359841     0.14855267069585     0.14858499254184
    2     0.21947598850228     0.28460951813437     0.26962843881692     0.26960375828197     0.26969022139475
    3     0.14566099804137     0.36636945082566     0.32464436674400     0.30323911109822     0.30345124871436
    4     0.00000000000000     0.00000000000000     0.00000000000000     0.00000000000000     0.00000000000000
    5     0.00000619148845    -0.00050481082924     0.00050481284673     0.00000717231310    -0.00000717202822
    6    -0.01909138360110    -0.07446705891429    -0.07482236940380     0.03557015439181     0.03556439723306
    7     0.00000000000000     0.00000000000000     0.00000000000000     0.00000000000000     0.00000000000000
    8     0.00001418824995    -0.00115681104592     0.00115681566915     0.00001643588159    -0.00001643522876
    9    -0.05034629538829    -0.15245466093197    -0.15326876116909     0.06741930019200     0.06740583504111
   10     0.02600412464257     0.02514039815389     0.02528026679071    -0.02705138850303    -0.02705170945147
   11     0.00000000000000     0.00000000000000     0.00000000000000     0.00000000000000     0.00000000000000
   12     0.00000000000000     0.00000000000000     0.00000000000000     0.00000000000000     0.00000000000000
   13     0.04503784528322     0.04374239173702     0.04358876226773    -0.04685901616763    -0.04685029777812
   14     0.00000135651009    -0.00012169294454     0.00012169190366     0.00000105256149    -0.00000105366194
   15    -0.14080935367130    -0.12755719816450    -0.13284404307918     0.14854585772555     0.14854826877595
   16    -0.21968292890232    -0.26900057771980    -0.28526746036285     0.26960300549182     0.26962361281072
   17    -0.14618972870829    -0.32287578013717    -0.36817716252296     0.30328074849480     0.30336804547535
   18     0.00000000000000     0.00000000000000     0.00000000000000     0.00000000000000     0.00000000000000
   19     0.00000794261819    -0.00067554260065     0.00067554206380     0.00000765039305    -0.00000765254773
   20    -0.01908629612700    -0.07455369300880    -0.07472132548681    -0.03556385001952    -0.03557810626878
   21     0.00000000000000     0.00000000000000     0.00000000000000     0.00000000000000     0.00000000000000
   22     0.00001820109015    -0.00154805542528     0.00154805419712     0.00001753143575    -0.00001753637268
   23    -0.05033720730938    -0.15265703020318    -0.15304131828238    -0.06740420960692    -0.06743720572112
   24    -0.02599836185610    -0.02530266033981    -0.02511587632009    -0.02705334983446    -0.02705708850788
   25     0.00000000000000     0.00000000000000     0.00000000000000     0.00000000000000     0.00000000000000
   26     0.00000000000000     0.00000000000000     0.00000000000000     0.00000000000000     0.00000000000000
   27    -0.04503456107118    -0.04349904227970    -0.04382842077542    -0.04686442715217    -0.04685759789783
   28     0.00000116802908    -0.00012854737628     0.00012854450860    -0.00000070212626     0.00000069951343
   29     0.14080935367130     0.12755719816450    -0.13284404307918    -0.14854585772555     0.14854826877595
   30     0.21968292890232     0.26900057771980    -0.28526746036285    -0.26960300549182     0.26962361281072
   31     0.14618972870829     0.32287578013717    -0.36817716252296    -0.30328074849480     0.30336804547535
   32     0.00000000000000     0.00000000000000     0.00000000000000     0.00000000000000     0.00000000000000
   33     0.00000794261819    -0.00067554260065    -0.00067554206380     0.00000765039305     0.00000765254773
   34    -0.01908629612700    -0.07455369300880     0.07472132548681    -0.03556385001952     0.03557810626878
   35     0.00000000000000     0.00000000000000     0.00000000000000     0.00000000000000     0.00000000000000
   36     0.00001820109015    -0.00154805542528    -0.00154805419712     0.00001753143575     0.00001753637268
   37    -0.05033720730938    -0.15265703020318     0.15304131828238    -0.06740420960692     0.06743720572112
   38     0.02599836185610     0.02530266033981    -0.02511587632009     0.02705334983446    -0.02705708850788
   39     0.00000000000000     0.00000000000000     0.00000000000000     0.00000000000000     0.00000000000000
   40     0.00000000000000     0.00000000000000     0.00000000000000     0.00000000000000     0.00000000000000
   41     0.04503456107118     0.04349904227970    -0.04382842077542     0.04686442715217    -0.04685759789783
   42    -0.00000116802908     0.00012854737628     0.00012854450860     0.00000070212626     0.00000069951343
   43    -0.14073512148949    -0.13262761842888     0.12775931359841    -0.14855267069585     0.14858499254184
   44    -0.21947598850228    -0.28460951813437     0.26962843881692    -0.26960375828197     0.26969022139475
   45    -0.14566099804137    -0.36636945082566     0.32464436674400    -0.30323911109822     0.30345124871436
   46     0.00000000000000     0.00000000000000     0.00000000000000     0.00000000000000     0.00000000000000
   47     0.00000619148845    -0.00050481082924    -0.00050481284673     0.00000717231310     0.00000717202822
   48    -0.01909138360110    -0.07446705891429     0.07482236940380     0.03557015439181    -0.03556439723306
   49     0.00000000000000     0.00000000000000     0.00000000000000     0.00000000000000     0.00000000000000
   50     0.00001418824995    -0.00115681104592    -0.00115681566915     0.00001643588159     0.00001643522876
   51    -0.05034629538829    -0.15245466093197     0.15326876116909     0.06741930019200    -0.06740583504111
   52    -0.02600412464257    -0.02514039815389     0.02528026679071     0.02705138850303    -0.02705170945147
   53     0.00000000000000     0.00000000000000     0.00000000000000     0.00000000000000     0.00000000000000
   54     0.00000000000000     0.00000000000000     0.00000000000000     0.00000000000000     0.00000000000000
   55    -0.04503784528322    -0.04374239173702     0.04358876226773     0.04685901616763    -0.04685029777812
   56    -0.00000135651009     0.00012169294454     0.00012169190366    -0.00000105256149    -0.00000105366194

                11                  12

    1     0.14074427737564     0.14079246464655
    2     0.21949228250196     0.21965213090395
    3     0.14567768992232     0.14615088198704
    4     0.00000000000000     0.00000000000000
    5     0.00000618059061    -0.00000618087732
    6    -0.01908987841952    -0.01908794013962
    7     0.00000000000000     0.00000000000000
    8     0.00001416327679    -0.00001416393380
    9    -0.05034349316280    -0.05033838189079
   10     0.02600270828711     0.02600244190888
   11     0.00000000000000     0.00000000000000
   12     0.00000000000000     0.00000000000000
   13     0.04503539531296     0.04504016622047
   14     0.00000135376710    -0.00000135216544
   15    -0.14080189025999    -0.14074895475023
   16    -0.21967025439743    -0.21949692483695
   17    -0.14617765336217    -0.14567145167177
   18     0.00000000000000     0.00000000000000
   19     0.00000792756626    -0.00000792428538
   20    -0.01908881129417    -0.01908573456020
   21     0.00000000000000     0.00000000000000
   22     0.00001816660170    -0.00001815908387
   23    -0.05034206838707    -0.05033594320577
   24    -0.02600009692914    -0.02600057287158
   25     0.00000000000000     0.00000000000000
   26     0.00000000000000     0.00000000000000
   27    -0.04503756058951    -0.04503024647318
   28     0.00000116460880    -0.00000116075160
   29     0.14080189025999    -0.14074895475023
   30     0.21967025439743    -0.21949692483695
   31     0.14617765336217    -0.14567145167177
   32     0.00000000000000     0.00000000000000
   33     0.00000792756626     0.00000792428538
   34    -0.01908881129417     0.01908573456020
   35     0.00000000000000     0.00000000000000
   36     0.00001816660170     0.00001815908387
   37    -0.05034206838707     0.05033594320577
   38     0.02600009692914    -0.02600057287158
   39     0.00000000000000     0.00000000000000
   40     0.00000000000000     0.00000000000000
   41     0.04503756058951    -0.04503024647318
   42    -0.00000116460880    -0.00000116075160
   43    -0.14074427737564     0.14079246464655
   44    -0.21949228250196     0.21965213090395
   45    -0.14567768992232     0.14615088198704
   46     0.00000000000000     0.00000000000000
   47     0.00000618059061     0.00000618087732
   48    -0.01908987841952     0.01908794013962
   49     0.00000000000000     0.00000000000000
   50     0.00001416327679     0.00001416393380
   51    -0.05034349316280     0.05033838189079
   52    -0.02600270828711     0.02600244190888
   53     0.00000000000000     0.00000000000000
   54     0.00000000000000     0.00000000000000
   55    -0.04503539531296     0.04504016622047
   56    -0.00000135376710    -0.00000135216544



