    -----------------------------------------------------------------------
          PSI4: An Open-Source Ab Initio Electronic Structure Package
                              PSI 4.0 Driver

               Git: Rev {master} 556e8139d3cfa1f96ccffe2cdf22cc56a185d2b2

    J. M. Turney, A. C. Simmonett, R. M. Parrish, E. G. Hohenstein,
    F. A. Evangelista, J. T. Fermann, B. J. Mintz, L. A. Burns, J. J. Wilke,
    M. L. Abrams, N. J. Russ, M. L. Leininger, C. L. Janssen, E. T. Seidl,
    W. D. Allen, H. F. Schaefer, R. A. King, E. F. Valeev, C. D. Sherrill,
    and T. D. Crawford, WIREs Comput. Mol. Sci. 2, 556-565 (2012)
    (doi: 10.1002/wcms.93)

                         Additional Contributions by
    A. E. DePrince, M. Saitow, U. Bozkaya, A. Yu. Sokolov
    -----------------------------------------------------------------------

    Process ID:  48679
    PSI4DATADIR: /Users/kevinhannon/Programs/psi4cmake/psi4/lib
    Memory level set to 256.000 MB

  ==> Input File <==

--------------------------------------------------------------------------

# PYTHONPATH must include directory above plugin directory.
#     Define either externally or here, then import plugin.
sys.path.insert(0, './..')
import dfmp2

molecule {
H 0.00   0.000    1.200
H 0.00   0.000    0.000
symmetry c1
}

set {
  basis cc-pvdz
  df_basis_mp2 cc-pvdz-ri
  freeze_core false
  memory 1gb
}

set dfmp2 {
  print 1
}
energy('scf')
energy('mp2')
energy('dfmp2')

dfmp2.exampleFN()

--------------------------------------------------------------------------

*** tstart() called on Kevins-MacBook-Pro.local
*** at Wed Jan  7 14:32:56 2015

dfmp2.so loaded.

*** tstart() called on Kevins-MacBook-Pro.local
*** at Wed Jan  7 14:32:56 2015

    There are an even number of electrons - assuming singlet.
    Specify the multiplicity with the MULTP option in the
    input if this is incorrect


         ---------------------------------------------------------
                                   SCF
            by Justin Turney, Rob Parrish, and Andy Simmonett
                              RHF Reference
                        1 Threads,    256 MiB Core
         ---------------------------------------------------------

  ==> Geometry <==

    Molecular point group: c1
    Full point group: D_inf_h

    Geometry (in Angstrom), charge = 0, multiplicity = 1:

       Center              X                  Y                   Z       
    ------------   -----------------  -----------------  -----------------
           H          0.000000000000     0.000000000000     0.600000000000
           H          0.000000000000     0.000000000000    -0.600000000000

  Running in c1 symmetry.

  Rotational constants: A = ************  B =     23.23159  C =     23.23159 [cm^-1]
  Rotational constants: A = ************  B = 696465.42047  C = 696465.42047 [MHz]
  Nuclear repulsion =    0.440981007158333

  Charge       = 0
  Multiplicity = 1
  Electrons    = 2
  Nalpha       = 1
  Nbeta        = 1

  ==> Algorithm <==

  SCF Algorithm Type is DF.
  DIIS enabled.
  MOM disabled.
  Fractional occupation disabled.
  Guess Type is CORE.
  Energy threshold   = 1.00e-06
  Density threshold  = 1.00e-06
  Integral threshold = 0.00e+00

  ==> Primary Basis <==

  Basis Set: CC-PVDZ
    Number of shells: 6
    Number of basis function: 10
    Number of Cartesian functions: 10
    Spherical Harmonics?: true
    Max angular momentum: 1

  ==> Pre-Iterations <==

   -------------------------------------------------------
    Irrep   Nso     Nmo     Nalpha   Nbeta   Ndocc  Nsocc
   -------------------------------------------------------
     A         10      10       0       0       0       0
   -------------------------------------------------------
    Total      10      10       1       1       1       0
   -------------------------------------------------------

 OEINTS: Overlap, kinetic, potential, dipole, and quadrupole integrals
         stored in file 35.

  ==> Integral Setup <==

  ==> DFJK: Density-Fitted J/K Matrices <==

    J tasked:                  Yes
    K tasked:                  Yes
    wK tasked:                  No
    OpenMP threads:              1
    Integrals threads:           1
    Memory (MB):               183
    Algorithm:                Core
    Integral Cache:           NONE
    Schwarz Cutoff:          1E-12
    Fitting Condition:       1E-12

   => Auxiliary Basis Set <=

  Basis Set: 
    Number of shells: 18
    Number of basis function: 46
    Number of Cartesian functions: 50
    Spherical Harmonics?: true
    Max angular momentum: 2

  Minimum eigenvalue in the overlap matrix is 1.3914981392E-01.
  Using Symmetric Orthogonalization.
  SCF Guess: Core (One-Electron) Hamiltonian.

  ==> Iterations <==

                           Total Energy        Delta E     RMS |[F,P]|

   @DF-RHF iter   1:    -1.01762117058576   -1.01762e+00   1.98247e-02 
   @DF-RHF iter   2:    -1.05977677307618   -4.21556e-02   3.45400e-03 DIIS
   @DF-RHF iter   3:    -1.06111314365643   -1.33637e-03   1.42886e-04 DIIS
   @DF-RHF iter   4:    -1.06111455544821   -1.41179e-06   5.49812e-06 DIIS
   @DF-RHF iter   5:    -1.06111455889154   -3.44333e-09   4.33813e-09 DIIS

  ==> Post-Iterations <==

    Orbital Energies (a.u.)
    -----------------------

    Doubly Occupied:                                                      

       1A     -0.485258  

    Virtual:                                                              

       2A      0.100275     3A      0.582933     4A      0.729347  
       5A      1.315489     6A      1.315489     7A      1.472185  
       8A      1.754113     9A      1.754113    10A      2.459992  

    Final Occupation by Irrep:
              A 
    DOCC [     1 ]

  Energy converged.

  @DF-RHF Final Energy:    -1.06111455889154

   => Energetics <=

    Nuclear Repulsion Energy =              0.4409810071583334
    One-Electron Energy =                  -2.0336744705392511
    Two-Electron Energy =                   0.5315789044893768
    DFT Exchange-Correlation Energy =       0.0000000000000000
    Empirical Dispersion Energy =           0.0000000000000000
    Total Energy =                         -1.0611145588915409



Properties will be evaluated at   0.000000,   0.000000,   0.000000 Bohr
  ==> Properties <==


Properties computed using the SCF density matrix

  Nuclear Dipole Moment: (a.u.)
     X:     0.0000      Y:     0.0000      Z:     0.0000

  Electronic Dipole Moment: (a.u.)
     X:    -0.0000      Y:     0.0000      Z:    -0.0000

  Dipole Moment: (a.u.)
     X:    -0.0000      Y:     0.0000      Z:    -0.0000     Total:     0.0000

  Dipole Moment: (Debye)
     X:    -0.0000      Y:     0.0000      Z:    -0.0000     Total:     0.0000


  Saving occupied orbitals to File 180.

*** tstop() called on Kevins-MacBook-Pro.local at Wed Jan  7 14:32:56 2015
Module time:
	user time   =       0.13 seconds =       0.00 minutes
	system time =       0.00 seconds =       0.00 minutes
	total time  =          0 seconds =       0.00 minutes
Total time:
	user time   =       0.14 seconds =       0.00 minutes
	system time =       0.01 seconds =       0.00 minutes
	total time  =          0 seconds =       0.00 minutes

*** tstart() called on Kevins-MacBook-Pro.local
*** at Wed Jan  7 14:32:56 2015

    There are an even number of electrons - assuming singlet.
    Specify the multiplicity with the MULTP option in the
    input if this is incorrect


         ---------------------------------------------------------
                                   SCF
            by Justin Turney, Rob Parrish, and Andy Simmonett
                              RHF Reference
                        1 Threads,    256 MiB Core
         ---------------------------------------------------------

  ==> Geometry <==

    Molecular point group: c1
    Full point group: D_inf_h

    Geometry (in Angstrom), charge = 0, multiplicity = 1:

       Center              X                  Y                   Z       
    ------------   -----------------  -----------------  -----------------
           H          0.000000000000     0.000000000000     0.600000000000
           H          0.000000000000     0.000000000000    -0.600000000000

  Running in c1 symmetry.

  Rotational constants: A = ************  B =     23.23159  C =     23.23159 [cm^-1]
  Rotational constants: A = ************  B = 696465.42047  C = 696465.42047 [MHz]
  Nuclear repulsion =    0.440981007158333

  Charge       = 0
  Multiplicity = 1
  Electrons    = 2
  Nalpha       = 1
  Nbeta        = 1

  ==> Algorithm <==

  SCF Algorithm Type is DF.
  DIIS enabled.
  MOM disabled.
  Fractional occupation disabled.
  Guess Type is CORE.
  Energy threshold   = 1.00e-08
  Density threshold  = 1.00e-08
  Integral threshold = 0.00e+00

  ==> Primary Basis <==

  Basis Set: CC-PVDZ
    Number of shells: 6
    Number of basis function: 10
    Number of Cartesian functions: 10
    Spherical Harmonics?: true
    Max angular momentum: 1

  ==> Pre-Iterations <==

   -------------------------------------------------------
    Irrep   Nso     Nmo     Nalpha   Nbeta   Ndocc  Nsocc
   -------------------------------------------------------
     A         10      10       0       0       0       0
   -------------------------------------------------------
    Total      10      10       1       1       1       0
   -------------------------------------------------------

 OEINTS: Overlap, kinetic, potential, dipole, and quadrupole integrals
         stored in file 35.

  ==> Integral Setup <==

  ==> DFJK: Density-Fitted J/K Matrices <==

    J tasked:                  Yes
    K tasked:                  Yes
    wK tasked:                  No
    OpenMP threads:              1
    Integrals threads:           1
    Memory (MB):               183
    Algorithm:                Core
    Integral Cache:           NONE
    Schwarz Cutoff:          1E-12
    Fitting Condition:       1E-12

   => Auxiliary Basis Set <=

  Basis Set: 
    Number of shells: 18
    Number of basis function: 46
    Number of Cartesian functions: 50
    Spherical Harmonics?: true
    Max angular momentum: 2

  Minimum eigenvalue in the overlap matrix is 1.3914981392E-01.
  Using Symmetric Orthogonalization.
  SCF Guess: Core (One-Electron) Hamiltonian.

  ==> Iterations <==

                           Total Energy        Delta E     RMS |[F,P]|

   @DF-RHF iter   1:    -1.01762117058576   -1.01762e+00   1.98247e-02 
   @DF-RHF iter   2:    -1.05977677307618   -4.21556e-02   3.45400e-03 DIIS
   @DF-RHF iter   3:    -1.06111314365643   -1.33637e-03   1.42886e-04 DIIS
   @DF-RHF iter   4:    -1.06111455544821   -1.41179e-06   5.49812e-06 DIIS
   @DF-RHF iter   5:    -1.06111455889154   -3.44333e-09   4.33813e-09 DIIS

  ==> Post-Iterations <==

    Orbital Energies (a.u.)
    -----------------------

    Doubly Occupied:                                                      

       1A     -0.485258  

    Virtual:                                                              

       2A      0.100275     3A      0.582933     4A      0.729347  
       5A      1.315489     6A      1.315489     7A      1.472185  
       8A      1.754113     9A      1.754113    10A      2.459992  

    Final Occupation by Irrep:
              A 
    DOCC [     1 ]

  Energy converged.

  @DF-RHF Final Energy:    -1.06111455889154

   => Energetics <=

    Nuclear Repulsion Energy =              0.4409810071583334
    One-Electron Energy =                  -2.0336744705392515
    Two-Electron Energy =                   0.5315789044893771
    DFT Exchange-Correlation Energy =       0.0000000000000000
    Empirical Dispersion Energy =           0.0000000000000000
    Total Energy =                         -1.0611145588915412



Properties will be evaluated at   0.000000,   0.000000,   0.000000 Bohr
  ==> Properties <==


Properties computed using the SCF density matrix

  Nuclear Dipole Moment: (a.u.)
     X:     0.0000      Y:     0.0000      Z:     0.0000

  Electronic Dipole Moment: (a.u.)
     X:     0.0000      Y:     0.0000      Z:    -0.0000

  Dipole Moment: (a.u.)
     X:     0.0000      Y:     0.0000      Z:    -0.0000     Total:     0.0000

  Dipole Moment: (Debye)
     X:     0.0000      Y:     0.0000      Z:    -0.0000     Total:     0.0000


  Saving occupied orbitals to File 180.

*** tstop() called on Kevins-MacBook-Pro.local at Wed Jan  7 14:32:56 2015
Module time:
	user time   =       0.13 seconds =       0.00 minutes
	system time =       0.01 seconds =       0.00 minutes
	total time  =          0 seconds =       0.00 minutes
Total time:
	user time   =       0.28 seconds =       0.00 minutes
	system time =       0.02 seconds =       0.00 minutes
	total time  =          0 seconds =       0.00 minutes

  //>>>>>>>>>>>>>>>>>>>>>>>>>>>>>>>>>>>//
  //               DFMP2               //
  //<<<<<<<<<<<<<<<<<<<<<<<<<<<<<<<<<<<//


*** tstart() called on Kevins-MacBook-Pro.local
*** at Wed Jan  7 14:32:56 2015

	 --------------------------------------------------------
	                          DF-MP2                         
	      2nd-Order Density-Fitted Moller-Plesset Theory     
	              RMP2 Wavefunction,   1 Threads             
	                                                         
	        Rob Parrish, Justin Turney, Andy Simmonett,      
	           Ed Hohenstein, and C. David Sherrill          
	 --------------------------------------------------------

   => Auxiliary Basis Set <=

  Basis Set: CC-PVDZ-RI
    Number of shells: 12
    Number of basis function: 28
    Number of Cartesian functions: 30
    Spherical Harmonics?: true
    Max angular momentum: 2

	 --------------------------------------------------------
	                 NBF =    10, NAUX =    28
	 --------------------------------------------------------
	   CLASS    FOCC     OCC    AOCC    AVIR     VIR    FVIR
	   PAIRS       0       1       1       9       9       0
	 --------------------------------------------------------

	----------------------------------------------------------
	 ==================> DF-MP2 Energies <=================== 
	----------------------------------------------------------
	 Reference Energy          =      -1.0611145588915409 [H]
	 Singles Energy            =      -0.0000000000000001 [H]
	 Same-Spin Energy          =      -0.0000000000000000 [H]
	 Opposite-Spin Energy      =      -0.0308385277149034 [H]
	 Correlation Energy        =      -0.0308385277149035 [H]
	 Total Energy              =      -1.0919530866064444 [H]
	----------------------------------------------------------
	 ================> DF-SCS-MP2 Energies <================= 
	----------------------------------------------------------
	 SCS Same-Spin Scale       =       0.3333333333333333 [-]
	 SCS Opposite-Spin Scale   =       1.2000000000000000 [-]
	 SCS Same-Spin Energy      =      -0.0000000000000000 [H]
	 SCS Opposite-Spin Energy  =      -0.0370062332578841 [H]
	 SCS Correlation Energy    =      -0.0370062332578842 [H]
	 SCS Total Energy          =      -1.0981207921494252 [H]
	----------------------------------------------------------


*** tstop() called on Kevins-MacBook-Pro.local at Wed Jan  7 14:32:56 2015
Module time:
	user time   =       0.06 seconds =       0.00 minutes
	system time =       0.00 seconds =       0.00 minutes
	total time  =          0 seconds =       0.00 minutes
Total time:
	user time   =       0.34 seconds =       0.01 minutes
	system time =       0.02 seconds =       0.00 minutes
	total time  =          0 seconds =       0.00 minutes

*** tstart() called on Kevins-MacBook-Pro.local
*** at Wed Jan  7 14:32:56 2015

    There are an even number of electrons - assuming singlet.
    Specify the multiplicity with the MULTP option in the
    input if this is incorrect


         ---------------------------------------------------------
                                   SCF
            by Justin Turney, Rob Parrish, and Andy Simmonett
                              RHF Reference
                        1 Threads,    256 MiB Core
         ---------------------------------------------------------

  ==> Geometry <==

    Molecular point group: c1
    Full point group: D_inf_h

    Geometry (in Angstrom), charge = 0, multiplicity = 1:

       Center              X                  Y                   Z       
    ------------   -----------------  -----------------  -----------------
           H          0.000000000000     0.000000000000     0.600000000000
           H          0.000000000000     0.000000000000    -0.600000000000

  Running in c1 symmetry.

  Rotational constants: A = ************  B =     23.23159  C =     23.23159 [cm^-1]
  Rotational constants: A = ************  B = 696465.42047  C = 696465.42047 [MHz]
  Nuclear repulsion =    0.440981007158333

  Charge       = 0
  Multiplicity = 1
  Electrons    = 2
  Nalpha       = 1
  Nbeta        = 1

  ==> Algorithm <==

  SCF Algorithm Type is PK.
  DIIS enabled.
  MOM disabled.
  Fractional occupation disabled.
  Guess Type is CORE.
  Energy threshold   = 1.00e-08
  Density threshold  = 1.00e-08
  Integral threshold = 0.00e+00

  ==> Primary Basis <==

  Basis Set: CC-PVDZ
    Number of shells: 6
    Number of basis function: 10
    Number of Cartesian functions: 10
    Spherical Harmonics?: true
    Max angular momentum: 1

  ==> Pre-Iterations <==

   -------------------------------------------------------
    Irrep   Nso     Nmo     Nalpha   Nbeta   Ndocc  Nsocc
   -------------------------------------------------------
     A         10      10       0       0       0       0
   -------------------------------------------------------
    Total      10      10       1       1       1       0
   -------------------------------------------------------

  Starting with a DF guess...

 OEINTS: Overlap, kinetic, potential, dipole, and quadrupole integrals
         stored in file 35.

  ==> Integral Setup <==

  ==> DFJK: Density-Fitted J/K Matrices <==

    J tasked:                  Yes
    K tasked:                  Yes
    wK tasked:                  No
    OpenMP threads:              1
    Integrals threads:           1
    Memory (MB):               183
    Algorithm:                Core
    Integral Cache:           NONE
    Schwarz Cutoff:          1E-12
    Fitting Condition:       1E-12

   => Auxiliary Basis Set <=

  Basis Set: 
    Number of shells: 18
    Number of basis function: 46
    Number of Cartesian functions: 50
    Spherical Harmonics?: true
    Max angular momentum: 2

  Minimum eigenvalue in the overlap matrix is 1.3914981392E-01.
  Using Symmetric Orthogonalization.
  SCF Guess: Core (One-Electron) Hamiltonian.

  ==> Iterations <==

                           Total Energy        Delta E     RMS |[F,P]|

   @DF-RHF iter   1:    -1.01762117058576   -1.01762e+00   1.98247e-02 
   @DF-RHF iter   2:    -1.05977677307618   -4.21556e-02   3.45400e-03 DIIS
   @DF-RHF iter   3:    -1.06111314365643   -1.33637e-03   1.42886e-04 DIIS
   @DF-RHF iter   4:    -1.06111455544821   -1.41179e-06   5.49812e-06 DIIS
   @DF-RHF iter   5:    -1.06111455889154   -3.44333e-09   4.33813e-09 DIIS

  DF guess converged.

  ==> Integral Setup <==

 MINTS: Wrapper to libmints.
   by Justin Turney

   Calculation information:
      Number of atoms:                   2
      Number of AO shells:               6
      Number of SO shells:               6
      Number of primitives:             10
      Number of atomic orbitals:        10
      Number of basis functions:        10

      Number of irreps:                  1
      Integral cutoff                 0.00e+00
      Number of functions per irrep: [  10 ]

 OEINTS: Overlap, kinetic, potential, dipole, and quadrupole integrals
         stored in file 35.

      Computing two-electron integrals...done
      Computed 512 non-zero two-electron integrals.
        Stored in file 33.

	Batch   1 pq = [       0,      55] index = [             0,1540]
  ==> DiskJK: Disk-Based J/K Matrices <==

    J tasked:                  Yes
    K tasked:                  Yes
    wK tasked:                  No
    Memory (MB):               183
    Schwarz Cutoff:          1E-12

   @RHF iter   6:    -1.06111199672580    2.56217e-06   1.01387e-06 DIIS
   @RHF iter   7:    -1.06111199678673   -6.09246e-11   1.63263e-07 DIIS
   @RHF iter   8:    -1.06111199678838   -1.65046e-12   3.69419e-09 DIIS

  ==> Post-Iterations <==

    Orbital Energies (a.u.)
    -----------------------

    Doubly Occupied:                                                      

       1A     -0.485256  

    Virtual:                                                              

       2A      0.100246     3A      0.582960     4A      0.729285  
       5A      1.315309     6A      1.315309     7A      1.472195  
       8A      1.754058     9A      1.754058    10A      2.459835  

    Final Occupation by Irrep:
              A 
    DOCC [     1 ]

  Energy converged.

  @RHF Final Energy:    -1.06111199678838

   => Energetics <=

    Nuclear Repulsion Energy =              0.4409810071583334
    One-Electron Energy =                  -2.0336739396170036
    Two-Electron Energy =                   0.5315809356702935
    DFT Exchange-Correlation Energy =       0.0000000000000000
    Empirical Dispersion Energy =           0.0000000000000000
    Total Energy =                         -1.0611119967883766



Properties will be evaluated at   0.000000,   0.000000,   0.000000 Bohr
  ==> Properties <==


Properties computed using the SCF density matrix

  Nuclear Dipole Moment: (a.u.)
     X:     0.0000      Y:     0.0000      Z:     0.0000

  Electronic Dipole Moment: (a.u.)
     X:    -0.0000      Y:    -0.0000      Z:    -0.0000

  Dipole Moment: (a.u.)
     X:    -0.0000      Y:    -0.0000      Z:    -0.0000     Total:     0.0000

  Dipole Moment: (Debye)
     X:    -0.0000      Y:    -0.0000      Z:    -0.0000     Total:     0.0000


  Saving occupied orbitals to File 180.

*** tstop() called on Kevins-MacBook-Pro.local at Wed Jan  7 14:32:56 2015
Module time:
	user time   =       0.18 seconds =       0.00 minutes
	system time =       0.01 seconds =       0.00 minutes
	total time  =          0 seconds =       0.00 minutes
Total time:
	user time   =       0.53 seconds =       0.01 minutes
	system time =       0.03 seconds =       0.00 minutes
	total time  =          0 seconds =       0.00 minutes
Reading options from the DFMP2 block
Calling plugin dfmp2.so.

naux = 28  nbf = 10  ## C AO ACTIVE_VIR (Symmetry 0) ##
  Irrep: 1 Size: 10 x 9

                 1                   2                   3                   4                   5

    1     0.24066703523331     0.83309126974334     0.96341821672552    -0.00000000000000    -0.00000000000000
    2     1.07576447160196    -0.74523020721223    -1.37000427706976     0.00000000000000     0.00000000000000
    3     0.00871842530268    -0.09116908423742     0.11180318477484     0.00000000000000     0.00000000000000
    4    -0.00000000000000     0.00000000000000    -0.00000000000000     0.23879145175685     0.61332185274206
    5    -0.00000000000000    -0.00000000000000     0.00000000000000    -0.61332185274206     0.23879145175685
    6    -0.24066703523331     0.83309126974334    -0.96341821672552     0.00000000000000     0.00000000000000
    7    -1.07576447160196    -0.74523020721223     1.37000427706976    -0.00000000000000    -0.00000000000000
    8     0.00871842530268     0.09116908423742     0.11180318477484    -0.00000000000000    -0.00000000000000
    9    -0.00000000000000     0.00000000000000     0.00000000000000     0.23879145175685     0.61332185274206
   10    -0.00000000000000    -0.00000000000000    -0.00000000000000    -0.61332185274206     0.23879145175685

                 6                   7                   8                   9

    1     0.35288603196710     0.00000000000000     0.00000000000000     0.38450660947841
    2    -0.17074473439129    -0.00000000000000    -0.00000000000000     0.36851877912961
    3     0.60485612909341     0.00000000000000     0.00000000000000    -1.09705726560122
    4    -0.00000000000000     0.75921936398553     0.12153600414503     0.00000000000000
    5     0.00000000000000     0.12153600414503    -0.75921936398553     0.00000000000000
    6     0.35288603196710     0.00000000000000     0.00000000000000    -0.38450660947841
    7    -0.17074473439130     0.00000000000000     0.00000000000000    -0.36851877912961
    8    -0.60485612909341     0.00000000000000     0.00000000000000    -1.09705726560122
    9    -0.00000000000000    -0.75921936398553    -0.12153600414504    -0.00000000000000
   10    -0.00000000000000    -0.12153600414504     0.75921936398553     0.00000000000000



    Molecular point group: c1
    Full point group: D_inf_h

    Geometry (in Angstrom), charge = 0, multiplicity = 1:

       Center              X                  Y                   Z       
    ------------   -----------------  -----------------  -----------------
           H          0.000000000000     0.000000000000     0.600000000000
           H          0.000000000000     0.000000000000    -0.600000000000


    Nuclear repulsion energy:       0.44098101

  ## Amn (Symmetry 0) ##
  Irrep: 1 Size: 28 x 100

                 1                   2                   3                   4                   5

    1     1.36181214488214     0.69837060195305    -0.00000000000000     0.00000000000000     0.00000000000000
    2     3.12829796139394     1.78681734989852    -0.00000000000000     0.00000000000000     0.00000000000000
    3     5.45839368165306     3.45094097606463    -0.00000000000000     0.00000000000000     0.00000000000000
    4     0.00000000000000     0.00000000000000     0.56449653285425     0.00000000000000     0.00000000000000
    5     0.00000000000000     0.00000000000000     0.00000000000000     0.56449653285425     0.00000000000000
    6     0.00000000000000     0.00000000000000     0.00000000000000     0.00000000000000     0.56449653285425
    7    -0.00000000000000    -0.00000000000000     0.79155219962578     0.00000000000000     0.00000000000000
    8     0.00000000000000     0.00000000000000     0.00000000000000     0.79155219962578     0.00000000000000
    9     0.00000000000000     0.00000000000000     0.00000000000000     0.00000000000000     0.79155219962578
   10     0.00000000000000     0.00000000000000    -0.00000000000000     0.00000000000000     0.00000000000000
   11     0.00000000000000     0.00000000000000     0.00000000000000    -0.00000000000000     0.00000000000000
   12     0.00000000000000     0.00000000000000     0.00000000000000     0.00000000000000    -0.00000000000000
   13     0.00000000000000     0.00000000000000     0.00000000000000     0.00000000000000     0.00000000000000
   14     0.00000000000000     0.00000000000000     0.00000000000000     0.00000000000000     0.00000000000000
   15     0.51268049080287     0.34547667926211    -0.14011767104622     0.00000000000000     0.00000000000000
   16     1.55649864741223     1.03707436214874    -0.39234523170948     0.00000000000000     0.00000000000000
   17     3.87303991309298     2.55776021600773    -0.62653257421253     0.00000000000000     0.00000000000000
   18     0.31869750969387     0.19002982943407    -0.14582271647385     0.00000000000000     0.00000000000000
   19     0.00000000000000     0.00000000000000     0.00000000000000     0.08998091349908     0.00000000000000
   20     0.00000000000000     0.00000000000000     0.00000000000000     0.00000000000000     0.08998091349908
   21     0.67242554947112     0.39238314066340    -0.24156744496257     0.00000000000000     0.00000000000000
   22     0.00000000000000     0.00000000000000     0.00000000000000     0.18942818126206     0.00000000000000
   23     0.00000000000000     0.00000000000000     0.00000000000000     0.00000000000000     0.18942818126206
   24     0.31015919617290     0.14829765837513    -0.12507049189126     0.00000000000000     0.00000000000000
   25     0.00000000000000     0.00000000000000     0.00000000000000     0.15300390505641     0.00000000000000
   26     0.00000000000000     0.00000000000000     0.00000000000000     0.00000000000000     0.15300390505641
   27     0.00000000000000     0.00000000000000     0.00000000000000     0.00000000000000     0.00000000000000
   28     0.00000000000000     0.00000000000000     0.00000000000000     0.00000000000000     0.00000000000000

                 6                   7                   8                   9                  10

    1     0.22802449894601     0.40520015587213     0.33269877533631     0.00000000000000     0.00000000000000
    2     0.60899611565551     1.04851907595986     0.86185220714742     0.00000000000000     0.00000000000000
    3     1.23220974463795     2.05531610017415     1.64023931216296     0.00000000000000     0.00000000000000
    4    -0.11753256334142    -0.07252679162766    -0.19188696581845     0.00000000000000     0.00000000000000
    5     0.00000000000000     0.00000000000000     0.00000000000000     0.05610207542156     0.00000000000000
    6     0.00000000000000     0.00000000000000     0.00000000000000     0.00000000000000     0.05610207542156
    7    -0.19867182639709    -0.12201392793000    -0.29607351306974     0.00000000000000     0.00000000000000
    8     0.00000000000000     0.00000000000000     0.00000000000000     0.09631129014388     0.00000000000000
    9     0.00000000000000     0.00000000000000     0.00000000000000     0.00000000000000     0.09631129014388
   10     0.06290239398158     0.01225883621199     0.09194208134291     0.00000000000000     0.00000000000000
   11     0.00000000000000     0.00000000000000     0.00000000000000    -0.06529234855585     0.00000000000000
   12     0.00000000000000     0.00000000000000     0.00000000000000     0.00000000000000    -0.06529234855585
   13     0.00000000000000     0.00000000000000     0.00000000000000     0.00000000000000     0.00000000000000
   14     0.00000000000000     0.00000000000000     0.00000000000000     0.00000000000000     0.00000000000000
   15     0.22802449894601     0.24913528085353     0.24688931267780     0.00000000000000     0.00000000000000
   16     0.60899611565551     0.72925247464323     0.70834077633252     0.00000000000000     0.00000000000000
   17     1.23220974463795     1.69911396761580     1.50236537235603     0.00000000000000     0.00000000000000
   18     0.11753256334142     0.13409565216188     0.19462354037218     0.00000000000000     0.00000000000000
   19     0.00000000000000     0.00000000000000     0.00000000000000     0.08372609472863     0.00000000000000
   20     0.00000000000000     0.00000000000000     0.00000000000000     0.00000000000000     0.08372609472863
   21     0.19867182639709     0.26279541690869     0.33278407824733     0.00000000000000     0.00000000000000
   22     0.00000000000000     0.00000000000000     0.00000000000000     0.13192703994311     0.00000000000000
   23     0.00000000000000     0.00000000000000     0.00000000000000     0.00000000000000     0.13192703994311
   24     0.06290239398158     0.09022133431412     0.13307532017025     0.00000000000000     0.00000000000000
   25     0.00000000000000     0.00000000000000     0.00000000000000     0.06447934078893     0.00000000000000
   26     0.00000000000000     0.00000000000000     0.00000000000000     0.00000000000000     0.06447934078893
   27     0.00000000000000     0.00000000000000     0.00000000000000     0.00000000000000     0.00000000000000
   28     0.00000000000000     0.00000000000000     0.00000000000000     0.00000000000000     0.00000000000000

                11                  12                  13                  14                  15

    1     0.69837060195305     0.63529679664798    -0.00000000000000     0.00000000000000     0.00000000000000
    2     1.78681734989852     1.81653520700661     0.00000000000000     0.00000000000000     0.00000000000000
    3     3.45094097606463     4.11263206828534     0.00000000000000     0.00000000000000     0.00000000000000
    4     0.00000000000000     0.00000000000000     0.35282996876792     0.00000000000000     0.00000000000000
    5     0.00000000000000     0.00000000000000     0.00000000000000     0.35282996876792     0.00000000000000
    6     0.00000000000000     0.00000000000000     0.00000000000000     0.00000000000000     0.35282996876792
    7    -0.00000000000000    -0.00000000000000     0.55238358279355     0.00000000000000     0.00000000000000
    8     0.00000000000000     0.00000000000000     0.00000000000000     0.55238358279355     0.00000000000000
    9     0.00000000000000     0.00000000000000     0.00000000000000     0.00000000000000     0.55238358279355
   10     0.00000000000000     0.00000000000000     0.00000000000000     0.00000000000000     0.00000000000000
   11     0.00000000000000     0.00000000000000     0.00000000000000     0.00000000000000     0.00000000000000
   12     0.00000000000000     0.00000000000000     0.00000000000000     0.00000000000000     0.00000000000000
   13     0.00000000000000     0.00000000000000     0.00000000000000     0.00000000000000     0.00000000000000
   14     0.00000000000000     0.00000000000000     0.00000000000000     0.00000000000000     0.00000000000000
   15     0.34547667926211     0.45185960280392    -0.12614494079879     0.00000000000000     0.00000000000000
   16     1.03707436214874     1.34503703317071    -0.34153747711086     0.00000000000000     0.00000000000000
   17     2.55776021600773     3.34052380257316    -0.54446846059729     0.00000000000000     0.00000000000000
   18     0.19002982943407     0.16208749034100    -0.10743045375467     0.00000000000000     0.00000000000000
   19     0.00000000000000     0.00000000000000     0.00000000000000     0.07941944038006     0.00000000000000
   20     0.00000000000000     0.00000000000000     0.00000000000000     0.00000000000000     0.07941944038006
   21     0.39238314066340     0.33761158842997    -0.17001917317138     0.00000000000000     0.00000000000000
   22     0.00000000000000     0.00000000000000     0.00000000000000     0.16432005753295     0.00000000000000
   23     0.00000000000000     0.00000000000000     0.00000000000000     0.00000000000000     0.16432005753295
   24     0.14829765837513     0.07215499113915    -0.06452863498214     0.00000000000000     0.00000000000000
   25     0.00000000000000     0.00000000000000     0.00000000000000     0.11910601539016     0.00000000000000
   26     0.00000000000000     0.00000000000000     0.00000000000000     0.00000000000000     0.11910601539016
   27     0.00000000000000     0.00000000000000     0.00000000000000     0.00000000000000     0.00000000000000
   28     0.00000000000000     0.00000000000000     0.00000000000000     0.00000000000000     0.00000000000000

                16                  17                  18                  19                  20

    1     0.24913528085353     0.42179329301934     0.20431131617414     0.00000000000000     0.00000000000000
    2     0.72925247464323     1.22140576899191     0.56350364334679     0.00000000000000     0.00000000000000
    3     1.69911396761580     2.84263366924711     1.10457532781819     0.00000000000000     0.00000000000000
    4    -0.13409565216188    -0.09380722925790    -0.13215830582682     0.00000000000000     0.00000000000000
    5     0.00000000000000     0.00000000000000     0.00000000000000     0.06488284749994     0.00000000000000
    6     0.00000000000000     0.00000000000000     0.00000000000000     0.00000000000000     0.06488284749994
    7    -0.26279541690869    -0.18761424712761    -0.21923423705043     0.00000000000000     0.00000000000000
    8     0.00000000000000     0.00000000000000     0.00000000000000     0.12768623320812     0.00000000000000
    9     0.00000000000000     0.00000000000000     0.00000000000000     0.00000000000000     0.12768623320812
   10     0.09022133431412     0.02244358981969     0.07083946160931     0.00000000000000     0.00000000000000
   11     0.00000000000000     0.00000000000000     0.00000000000000    -0.08936615173127     0.00000000000000
   12     0.00000000000000     0.00000000000000     0.00000000000000     0.00000000000000    -0.08936615173127
   13     0.00000000000000     0.00000000000000     0.00000000000000     0.00000000000000     0.00000000000000
   14     0.00000000000000     0.00000000000000     0.00000000000000     0.00000000000000     0.00000000000000
   15     0.40520015587213     0.42179329301934     0.15044168348909     0.00000000000000     0.00000000000000
   16     1.04851907595986     1.22140576899191     0.43032600275316     0.00000000000000     0.00000000000000
   17     2.05531610017415     2.84263366924711     0.91117729575468     0.00000000000000     0.00000000000000
   18     0.07252679162766     0.09380722925790     0.21965962628920     0.00000000000000     0.00000000000000
   19     0.00000000000000     0.00000000000000     0.00000000000000     0.19862747176790     0.00000000000000
   20     0.00000000000000     0.00000000000000     0.00000000000000     0.00000000000000     0.19862747176790
   21     0.12201392793000     0.18761424712761     0.35198375582506     0.00000000000000     0.00000000000000
   22     0.00000000000000     0.00000000000000     0.00000000000000     0.31357541832991     0.00000000000000
   23     0.00000000000000     0.00000000000000     0.00000000000000     0.00000000000000     0.31357541832991
   24     0.01225883621199     0.02244358981969     0.06075374626380     0.00000000000000     0.00000000000000
   25     0.00000000000000     0.00000000000000     0.00000000000000     0.04996931141402     0.00000000000000
   26     0.00000000000000     0.00000000000000     0.00000000000000     0.00000000000000     0.04996931141402
   27     0.00000000000000     0.00000000000000     0.00000000000000     0.00000000000000     0.00000000000000
   28     0.00000000000000     0.00000000000000     0.00000000000000     0.00000000000000     0.00000000000000

                21                  22                  23                  24                  25

    1    -0.00000000000000    -0.00000000000000     1.03717320065125     0.00000000000000     0.00000000000000
    2    -0.00000000000000     0.00000000000000     2.76522139851981     0.00000000000000     0.00000000000000
    3    -0.00000000000000     0.00000000000000     5.25152850991984     0.00000000000000     0.00000000000000
    4     0.56449653285425     0.35282996876792     0.00000000000000     0.00000000000000     0.00000000000000
    5     0.00000000000000     0.00000000000000     0.00000000000000     0.00000000000000     0.00000000000000
    6     0.00000000000000     0.00000000000000     0.00000000000000     0.00000000000000     0.00000000000000
    7     0.79155219962578     0.55238358279355    -0.00000000000000     0.00000000000000     0.00000000000000
    8     0.00000000000000     0.00000000000000     0.00000000000000     0.00000000000000     0.00000000000000
    9     0.00000000000000     0.00000000000000     0.00000000000000     0.00000000000000     0.00000000000000
   10    -0.00000000000000     0.00000000000000     0.36552199952789     0.00000000000000     0.00000000000000
   11     0.00000000000000     0.00000000000000     0.00000000000000     0.31655133723324     0.00000000000000
   12     0.00000000000000     0.00000000000000     0.00000000000000     0.00000000000000     0.31655133723324
   13     0.00000000000000     0.00000000000000     0.00000000000000     0.00000000000000     0.00000000000000
   14     0.00000000000000     0.00000000000000     0.00000000000000     0.00000000000000     0.00000000000000
   15    -0.14011767104622    -0.12614494079879     0.57912250803417     0.00000000000000     0.00000000000000
   16    -0.39234523170948    -0.34153747711086     1.70719420755305     0.00000000000000     0.00000000000000
   17    -0.62653257421253    -0.54446846059729     3.94993306271746     0.00000000000000     0.00000000000000
   18    -0.14582271647385    -0.10743045375467     0.39456768276881     0.00000000000000     0.00000000000000
   19     0.00000000000000     0.00000000000000     0.00000000000000    -0.05974290003096     0.00000000000000
   20     0.00000000000000     0.00000000000000     0.00000000000000     0.00000000000000    -0.05974290003096
   21    -0.24156744496257    -0.17001917317138     0.73580038804122     0.00000000000000     0.00000000000000
   22     0.00000000000000     0.00000000000000     0.00000000000000    -0.10994430287529     0.00000000000000
   23     0.00000000000000     0.00000000000000     0.00000000000000     0.00000000000000    -0.10994430287529
   24    -0.12507049189126    -0.06452863498214     0.32504983747009     0.00000000000000     0.00000000000000
   25     0.00000000000000     0.00000000000000     0.00000000000000    -0.09970938300493     0.00000000000000
   26     0.00000000000000     0.00000000000000     0.00000000000000     0.00000000000000    -0.09970938300493
   27     0.00000000000000     0.00000000000000     0.00000000000000     0.00000000000000     0.00000000000000
   28     0.00000000000000     0.00000000000000     0.00000000000000     0.00000000000000     0.00000000000000

                26                  27                  28                  29                  30

    1    -0.24688931267780    -0.15044168348909    -0.38515245658605     0.00000000000000     0.00000000000000
    2    -0.70834077633252    -0.43032600275316    -1.07544769459211     0.00000000000000     0.00000000000000
    3    -1.50236537235603    -0.91117729575468    -2.15114783445347     0.00000000000000     0.00000000000000
    4     0.19462354037218     0.21965962628920     0.30777266871850     0.00000000000000     0.00000000000000
    5     0.00000000000000     0.00000000000000     0.00000000000000    -0.06721148838039     0.00000000000000
    6     0.00000000000000     0.00000000000000     0.00000000000000     0.00000000000000    -0.06721148838039
    7     0.33278407824733     0.35198375582506     0.49255689262554     0.00000000000000     0.00000000000000
    8     0.00000000000000     0.00000000000000     0.00000000000000    -0.12084621288533     0.00000000000000
    9     0.00000000000000     0.00000000000000     0.00000000000000     0.00000000000000    -0.12084621288533
   10    -0.13307532017025    -0.06075374626380    -0.19667548825392     0.00000000000000     0.00000000000000
   11     0.00000000000000     0.00000000000000     0.00000000000000     0.09884268694421     0.00000000000000
   12     0.00000000000000     0.00000000000000     0.00000000000000     0.00000000000000     0.09884268694421
   13     0.00000000000000     0.00000000000000     0.00000000000000     0.00000000000000     0.00000000000000
   14     0.00000000000000     0.00000000000000     0.00000000000000     0.00000000000000     0.00000000000000
   15    -0.33269877533631    -0.20431131617414    -0.38515245658605     0.00000000000000     0.00000000000000
   16    -0.86185220714742    -0.56350364334679    -1.07544769459211     0.00000000000000     0.00000000000000
   17    -1.64023931216296    -1.10457532781819    -2.15114783445347     0.00000000000000     0.00000000000000
   18    -0.19188696581845    -0.13215830582682    -0.30777266871850     0.00000000000000     0.00000000000000
   19     0.00000000000000     0.00000000000000     0.00000000000000    -0.12433986250725     0.00000000000000
   20     0.00000000000000     0.00000000000000     0.00000000000000     0.00000000000000    -0.12433986250725
   21    -0.29607351306974    -0.21923423705043    -0.49255689262554     0.00000000000000     0.00000000000000
   22     0.00000000000000     0.00000000000000     0.00000000000000    -0.18941917604403     0.00000000000000
   23     0.00000000000000     0.00000000000000     0.00000000000000     0.00000000000000    -0.18941917604403
   24    -0.09194208134291    -0.07083946160931    -0.19667548825392     0.00000000000000     0.00000000000000
   25     0.00000000000000     0.00000000000000     0.00000000000000    -0.10566537115250     0.00000000000000
   26     0.00000000000000     0.00000000000000     0.00000000000000     0.00000000000000    -0.10566537115250
   27     0.00000000000000     0.00000000000000     0.00000000000000     0.00000000000000     0.00000000000000
   28     0.00000000000000     0.00000000000000     0.00000000000000     0.00000000000000     0.00000000000000

                31                  32                  33                  34                  35

    1     0.00000000000000     0.00000000000000     0.00000000000000     1.03717320065125     0.00000000000000
    2     0.00000000000000     0.00000000000000     0.00000000000000     2.76522139851981     0.00000000000000
    3     0.00000000000000     0.00000000000000     0.00000000000000     5.25152850991984     0.00000000000000
    4     0.00000000000000     0.00000000000000     0.00000000000000     0.00000000000000     0.00000000000000
    5     0.56449653285425     0.35282996876792     0.00000000000000     0.00000000000000     0.00000000000000
    6     0.00000000000000     0.00000000000000     0.00000000000000     0.00000000000000     0.00000000000000
    7     0.00000000000000     0.00000000000000     0.00000000000000    -0.00000000000000     0.00000000000000
    8     0.79155219962578     0.55238358279355     0.00000000000000     0.00000000000000     0.00000000000000
    9     0.00000000000000     0.00000000000000     0.00000000000000     0.00000000000000     0.00000000000000
   10     0.00000000000000     0.00000000000000     0.00000000000000    -0.18276099976395     0.00000000000000
   11    -0.00000000000000     0.00000000000000     0.31655133723324     0.00000000000000     0.00000000000000
   12     0.00000000000000     0.00000000000000     0.00000000000000     0.00000000000000     0.00000000000000
   13     0.00000000000000     0.00000000000000     0.00000000000000     0.31655133723324     0.00000000000000
   14     0.00000000000000     0.00000000000000     0.00000000000000     0.00000000000000     0.31655133723324
   15     0.00000000000000     0.00000000000000     0.00000000000000     0.48003877244878     0.00000000000000
   16     0.00000000000000     0.00000000000000     0.00000000000000     1.47015252161599     0.00000000000000
   17     0.00000000000000     0.00000000000000     0.00000000000000     3.75241785030755     0.00000000000000
   18     0.00000000000000     0.00000000000000     0.00000000000000     0.27026209924602     0.00000000000000
   19     0.08998091349908     0.07941944038006    -0.05974290003096     0.00000000000000     0.00000000000000
   20     0.00000000000000     0.00000000000000     0.00000000000000     0.00000000000000     0.00000000000000
   21     0.00000000000000     0.00000000000000     0.00000000000000     0.58917973909418     0.00000000000000
   22     0.18942818126206     0.16432005753295    -0.10994430287529     0.00000000000000     0.00000000000000
   23     0.00000000000000     0.00000000000000     0.00000000000000     0.00000000000000     0.00000000000000
   24     0.00000000000000     0.00000000000000     0.00000000000000     0.23403294146695     0.00000000000000
   25     0.15300390505641     0.11910601539016    -0.09970938300493     0.00000000000000     0.00000000000000
   26     0.00000000000000     0.00000000000000     0.00000000000000     0.00000000000000     0.00000000000000
   27     0.00000000000000     0.00000000000000     0.00000000000000     0.03898950226481     0.00000000000000
   28     0.00000000000000     0.00000000000000     0.00000000000000     0.00000000000000     0.03898950226481

                36                  37                  38                  39                  40

    1     0.00000000000000     0.00000000000000     0.00000000000000     0.11950832656906     0.00000000000000
    2     0.00000000000000     0.00000000000000     0.00000000000000     0.34507154522349     0.00000000000000
    3     0.00000000000000     0.00000000000000     0.00000000000000     0.73651443082881     0.00000000000000
    4     0.00000000000000     0.00000000000000     0.00000000000000    -0.06721148838039     0.00000000000000
    5     0.08372609472863     0.19862747176790     0.12433986250725     0.00000000000000     0.00000000000000
    6     0.00000000000000     0.00000000000000     0.00000000000000     0.00000000000000     0.00000000000000
    7     0.00000000000000     0.00000000000000     0.00000000000000    -0.12084621288533     0.00000000000000
    8     0.13192703994311     0.31357541832991     0.18941917604403     0.00000000000000     0.00000000000000
    9     0.00000000000000     0.00000000000000     0.00000000000000     0.00000000000000     0.00000000000000
   10     0.00000000000000     0.00000000000000     0.00000000000000     0.02548372273026     0.00000000000000
   11    -0.06447934078893    -0.04996931141402    -0.10566537115250     0.00000000000000     0.00000000000000
   12     0.00000000000000     0.00000000000000     0.00000000000000     0.00000000000000     0.00000000000000
   13     0.00000000000000     0.00000000000000     0.00000000000000     0.02735179220470     0.00000000000000
   14     0.00000000000000     0.00000000000000     0.00000000000000     0.00000000000000     0.02735179220470
   15     0.00000000000000     0.00000000000000     0.00000000000000     0.11950832656906     0.00000000000000
   16     0.00000000000000     0.00000000000000     0.00000000000000     0.34507154522349     0.00000000000000
   17     0.00000000000000     0.00000000000000     0.00000000000000     0.73651443082881     0.00000000000000
   18     0.00000000000000     0.00000000000000     0.00000000000000     0.06721148838039     0.00000000000000
   19     0.05610207542156     0.06488284749994     0.06721148838039     0.00000000000000     0.00000000000000
   20     0.00000000000000     0.00000000000000     0.00000000000000     0.00000000000000     0.00000000000000
   21     0.00000000000000     0.00000000000000     0.00000000000000     0.12084621288533     0.00000000000000
   22     0.09631129014388     0.12768623320812     0.12084621288533     0.00000000000000     0.00000000000000
   23     0.00000000000000     0.00000000000000     0.00000000000000     0.00000000000000     0.00000000000000
   24     0.00000000000000     0.00000000000000     0.00000000000000     0.02548372273026     0.00000000000000
   25     0.06529234855585     0.08936615173127     0.09884268694421     0.00000000000000     0.00000000000000
   26     0.00000000000000     0.00000000000000     0.00000000000000     0.00000000000000     0.00000000000000
   27     0.00000000000000     0.00000000000000     0.00000000000000     0.02735179220470     0.00000000000000
   28     0.00000000000000     0.00000000000000     0.00000000000000     0.00000000000000     0.02735179220470

                41                  42                  43                  44                  45

    1     0.00000000000000     0.00000000000000     0.00000000000000     0.00000000000000     1.03717320065125
    2     0.00000000000000     0.00000000000000     0.00000000000000     0.00000000000000     2.76522139851981
    3     0.00000000000000     0.00000000000000     0.00000000000000     0.00000000000000     5.25152850991984
    4     0.00000000000000     0.00000000000000     0.00000000000000     0.00000000000000     0.00000000000000
    5     0.00000000000000     0.00000000000000     0.00000000000000     0.00000000000000     0.00000000000000
    6     0.56449653285425     0.35282996876792     0.00000000000000     0.00000000000000     0.00000000000000
    7     0.00000000000000     0.00000000000000     0.00000000000000     0.00000000000000    -0.00000000000000
    8     0.00000000000000     0.00000000000000     0.00000000000000     0.00000000000000     0.00000000000000
    9     0.79155219962578     0.55238358279355     0.00000000000000     0.00000000000000     0.00000000000000
   10     0.00000000000000     0.00000000000000     0.00000000000000     0.00000000000000    -0.18276099976395
   11     0.00000000000000     0.00000000000000     0.00000000000000     0.00000000000000     0.00000000000000
   12    -0.00000000000000     0.00000000000000     0.31655133723324     0.00000000000000     0.00000000000000
   13     0.00000000000000     0.00000000000000     0.00000000000000     0.00000000000000    -0.31655133723324
   14     0.00000000000000     0.00000000000000     0.00000000000000     0.31655133723324     0.00000000000000
   15     0.00000000000000     0.00000000000000     0.00000000000000     0.00000000000000     0.48003877244878
   16     0.00000000000000     0.00000000000000     0.00000000000000     0.00000000000000     1.47015252161599
   17     0.00000000000000     0.00000000000000     0.00000000000000     0.00000000000000     3.75241785030755
   18     0.00000000000000     0.00000000000000     0.00000000000000     0.00000000000000     0.27026209924602
   19     0.00000000000000     0.00000000000000     0.00000000000000     0.00000000000000     0.00000000000000
   20     0.08998091349908     0.07941944038006    -0.05974290003096     0.00000000000000     0.00000000000000
   21     0.00000000000000     0.00000000000000     0.00000000000000     0.00000000000000     0.58917973909418
   22     0.00000000000000     0.00000000000000     0.00000000000000     0.00000000000000     0.00000000000000
   23     0.18942818126206     0.16432005753295    -0.10994430287529     0.00000000000000     0.00000000000000
   24     0.00000000000000     0.00000000000000     0.00000000000000     0.00000000000000     0.23403294146695
   25     0.00000000000000     0.00000000000000     0.00000000000000     0.00000000000000     0.00000000000000
   26     0.15300390505641     0.11910601539016    -0.09970938300493     0.00000000000000     0.00000000000000
   27     0.00000000000000     0.00000000000000     0.00000000000000     0.00000000000000    -0.03898950226481
   28     0.00000000000000     0.00000000000000     0.00000000000000     0.03898950226481     0.00000000000000

                46                  47                  48                  49                  50

    1     0.00000000000000     0.00000000000000     0.00000000000000     0.00000000000000     0.11950832656906
    2     0.00000000000000     0.00000000000000     0.00000000000000     0.00000000000000     0.34507154522349
    3     0.00000000000000     0.00000000000000     0.00000000000000     0.00000000000000     0.73651443082881
    4     0.00000000000000     0.00000000000000     0.00000000000000     0.00000000000000    -0.06721148838039
    5     0.00000000000000     0.00000000000000     0.00000000000000     0.00000000000000     0.00000000000000
    6     0.08372609472863     0.19862747176790     0.12433986250725     0.00000000000000     0.00000000000000
    7     0.00000000000000     0.00000000000000     0.00000000000000     0.00000000000000    -0.12084621288533
    8     0.00000000000000     0.00000000000000     0.00000000000000     0.00000000000000     0.00000000000000
    9     0.13192703994311     0.31357541832991     0.18941917604403     0.00000000000000     0.00000000000000
   10     0.00000000000000     0.00000000000000     0.00000000000000     0.00000000000000     0.02548372273026
   11     0.00000000000000     0.00000000000000     0.00000000000000     0.00000000000000     0.00000000000000
   12    -0.06447934078893    -0.04996931141402    -0.10566537115250     0.00000000000000     0.00000000000000
   13     0.00000000000000     0.00000000000000     0.00000000000000     0.00000000000000    -0.02735179220470
   14     0.00000000000000     0.00000000000000     0.00000000000000     0.02735179220470     0.00000000000000
   15     0.00000000000000     0.00000000000000     0.00000000000000     0.00000000000000     0.11950832656906
   16     0.00000000000000     0.00000000000000     0.00000000000000     0.00000000000000     0.34507154522349
   17     0.00000000000000     0.00000000000000     0.00000000000000     0.00000000000000     0.73651443082881
   18     0.00000000000000     0.00000000000000     0.00000000000000     0.00000000000000     0.06721148838039
   19     0.00000000000000     0.00000000000000     0.00000000000000     0.00000000000000     0.00000000000000
   20     0.05610207542156     0.06488284749994     0.06721148838039     0.00000000000000     0.00000000000000
   21     0.00000000000000     0.00000000000000     0.00000000000000     0.00000000000000     0.12084621288533
   22     0.00000000000000     0.00000000000000     0.00000000000000     0.00000000000000     0.00000000000000
   23     0.09631129014388     0.12768623320812     0.12084621288533     0.00000000000000     0.00000000000000
   24     0.00000000000000     0.00000000000000     0.00000000000000     0.00000000000000     0.02548372273026
   25     0.00000000000000     0.00000000000000     0.00000000000000     0.00000000000000     0.00000000000000
   26     0.06529234855585     0.08936615173127     0.09884268694421     0.00000000000000     0.00000000000000
   27     0.00000000000000     0.00000000000000     0.00000000000000     0.00000000000000    -0.02735179220470
   28     0.00000000000000     0.00000000000000     0.00000000000000     0.02735179220470     0.00000000000000

                51                  52                  53                  54                  55

    1     0.22802449894601     0.24913528085353    -0.24688931267780     0.00000000000000     0.00000000000000
    2     0.60899611565551     0.72925247464323    -0.70834077633252     0.00000000000000     0.00000000000000
    3     1.23220974463795     1.69911396761580    -1.50236537235603     0.00000000000000     0.00000000000000
    4    -0.11753256334142    -0.13409565216188     0.19462354037218     0.00000000000000     0.00000000000000
    5     0.00000000000000     0.00000000000000     0.00000000000000     0.08372609472863     0.00000000000000
    6     0.00000000000000     0.00000000000000     0.00000000000000     0.00000000000000     0.08372609472863
    7    -0.19867182639709    -0.26279541690869     0.33278407824733     0.00000000000000     0.00000000000000
    8     0.00000000000000     0.00000000000000     0.00000000000000     0.13192703994311     0.00000000000000
    9     0.00000000000000     0.00000000000000     0.00000000000000     0.00000000000000     0.13192703994311
   10     0.06290239398158     0.09022133431412    -0.13307532017025     0.00000000000000     0.00000000000000
   11     0.00000000000000     0.00000000000000     0.00000000000000    -0.06447934078893     0.00000000000000
   12     0.00000000000000     0.00000000000000     0.00000000000000     0.00000000000000    -0.06447934078893
   13     0.00000000000000     0.00000000000000     0.00000000000000     0.00000000000000     0.00000000000000
   14     0.00000000000000     0.00000000000000     0.00000000000000     0.00000000000000     0.00000000000000
   15     0.22802449894601     0.40520015587213    -0.33269877533631     0.00000000000000     0.00000000000000
   16     0.60899611565551     1.04851907595986    -0.86185220714742     0.00000000000000     0.00000000000000
   17     1.23220974463795     2.05531610017415    -1.64023931216296     0.00000000000000     0.00000000000000
   18     0.11753256334142     0.07252679162766    -0.19188696581845     0.00000000000000     0.00000000000000
   19     0.00000000000000     0.00000000000000     0.00000000000000     0.05610207542156     0.00000000000000
   20     0.00000000000000     0.00000000000000     0.00000000000000     0.00000000000000     0.05610207542156
   21     0.19867182639709     0.12201392793000    -0.29607351306974     0.00000000000000     0.00000000000000
   22     0.00000000000000     0.00000000000000     0.00000000000000     0.09631129014388     0.00000000000000
   23     0.00000000000000     0.00000000000000     0.00000000000000     0.00000000000000     0.09631129014388
   24     0.06290239398158     0.01225883621199    -0.09194208134291     0.00000000000000     0.00000000000000
   25     0.00000000000000     0.00000000000000     0.00000000000000     0.06529234855585     0.00000000000000
   26     0.00000000000000     0.00000000000000     0.00000000000000     0.00000000000000     0.06529234855585
   27     0.00000000000000     0.00000000000000     0.00000000000000     0.00000000000000     0.00000000000000
   28     0.00000000000000     0.00000000000000     0.00000000000000     0.00000000000000     0.00000000000000

                56                  57                  58                  59                  60

    1     0.51268049080287     0.34547667926211     0.14011767104622     0.00000000000000     0.00000000000000
    2     1.55649864741223     1.03707436214874     0.39234523170948     0.00000000000000     0.00000000000000
    3     3.87303991309298     2.55776021600773     0.62653257421253     0.00000000000000     0.00000000000000
    4    -0.31869750969387    -0.19002982943407    -0.14582271647385     0.00000000000000     0.00000000000000
    5     0.00000000000000     0.00000000000000     0.00000000000000     0.08998091349908     0.00000000000000
    6     0.00000000000000     0.00000000000000     0.00000000000000     0.00000000000000     0.08998091349908
    7    -0.67242554947112    -0.39238314066340    -0.24156744496257     0.00000000000000     0.00000000000000
    8     0.00000000000000     0.00000000000000     0.00000000000000     0.18942818126206     0.00000000000000
    9     0.00000000000000     0.00000000000000     0.00000000000000     0.00000000000000     0.18942818126206
   10     0.31015919617290     0.14829765837513     0.12507049189126     0.00000000000000     0.00000000000000
   11     0.00000000000000     0.00000000000000     0.00000000000000    -0.15300390505641     0.00000000000000
   12     0.00000000000000     0.00000000000000     0.00000000000000     0.00000000000000    -0.15300390505641
   13     0.00000000000000     0.00000000000000     0.00000000000000     0.00000000000000     0.00000000000000
   14     0.00000000000000     0.00000000000000     0.00000000000000     0.00000000000000     0.00000000000000
   15     1.36181214488214     0.69837060195305     0.00000000000000     0.00000000000000     0.00000000000000
   16     3.12829796139394     1.78681734989852     0.00000000000000     0.00000000000000     0.00000000000000
   17     5.45839368165306     3.45094097606463     0.00000000000000     0.00000000000000     0.00000000000000
   18    -0.00000000000000    -0.00000000000000     0.56449653285425     0.00000000000000     0.00000000000000
   19     0.00000000000000     0.00000000000000     0.00000000000000     0.56449653285425     0.00000000000000
   20     0.00000000000000     0.00000000000000     0.00000000000000     0.00000000000000     0.56449653285425
   21     0.00000000000000     0.00000000000000     0.79155219962578     0.00000000000000     0.00000000000000
   22     0.00000000000000     0.00000000000000     0.00000000000000     0.79155219962578     0.00000000000000
   23     0.00000000000000     0.00000000000000     0.00000000000000     0.00000000000000     0.79155219962578
   24     0.00000000000000     0.00000000000000     0.00000000000000     0.00000000000000     0.00000000000000
   25     0.00000000000000     0.00000000000000     0.00000000000000     0.00000000000000     0.00000000000000
   26     0.00000000000000     0.00000000000000     0.00000000000000     0.00000000000000     0.00000000000000
   27     0.00000000000000     0.00000000000000     0.00000000000000     0.00000000000000     0.00000000000000
   28     0.00000000000000     0.00000000000000     0.00000000000000     0.00000000000000     0.00000000000000

                61                  62                  63                  64                  65

    1     0.40520015587213     0.42179329301934    -0.15044168348909     0.00000000000000     0.00000000000000
    2     1.04851907595986     1.22140576899191    -0.43032600275316     0.00000000000000     0.00000000000000
    3     2.05531610017415     2.84263366924711    -0.91117729575468     0.00000000000000     0.00000000000000
    4    -0.07252679162766    -0.09380722925790     0.21965962628920     0.00000000000000     0.00000000000000
    5     0.00000000000000     0.00000000000000     0.00000000000000     0.19862747176790     0.00000000000000
    6     0.00000000000000     0.00000000000000     0.00000000000000     0.00000000000000     0.19862747176790
    7    -0.12201392793000    -0.18761424712761     0.35198375582506     0.00000000000000     0.00000000000000
    8     0.00000000000000     0.00000000000000     0.00000000000000     0.31357541832991     0.00000000000000
    9     0.00000000000000     0.00000000000000     0.00000000000000     0.00000000000000     0.31357541832991
   10     0.01225883621199     0.02244358981969    -0.06075374626380     0.00000000000000     0.00000000000000
   11     0.00000000000000     0.00000000000000     0.00000000000000    -0.04996931141402     0.00000000000000
   12     0.00000000000000     0.00000000000000     0.00000000000000     0.00000000000000    -0.04996931141402
   13     0.00000000000000     0.00000000000000     0.00000000000000     0.00000000000000     0.00000000000000
   14     0.00000000000000     0.00000000000000     0.00000000000000     0.00000000000000     0.00000000000000
   15     0.24913528085353     0.42179329301934    -0.20431131617414     0.00000000000000     0.00000000000000
   16     0.72925247464323     1.22140576899191    -0.56350364334679     0.00000000000000     0.00000000000000
   17     1.69911396761580     2.84263366924711    -1.10457532781819     0.00000000000000     0.00000000000000
   18     0.13409565216188     0.09380722925790    -0.13215830582682     0.00000000000000     0.00000000000000
   19     0.00000000000000     0.00000000000000     0.00000000000000     0.06488284749994     0.00000000000000
   20     0.00000000000000     0.00000000000000     0.00000000000000     0.00000000000000     0.06488284749994
   21     0.26279541690869     0.18761424712761    -0.21923423705043     0.00000000000000     0.00000000000000
   22     0.00000000000000     0.00000000000000     0.00000000000000     0.12768623320812     0.00000000000000
   23     0.00000000000000     0.00000000000000     0.00000000000000     0.00000000000000     0.12768623320812
   24     0.09022133431412     0.02244358981969    -0.07083946160931     0.00000000000000     0.00000000000000
   25     0.00000000000000     0.00000000000000     0.00000000000000     0.08936615173127     0.00000000000000
   26     0.00000000000000     0.00000000000000     0.00000000000000     0.00000000000000     0.08936615173127
   27     0.00000000000000     0.00000000000000     0.00000000000000     0.00000000000000     0.00000000000000
   28     0.00000000000000     0.00000000000000     0.00000000000000     0.00000000000000     0.00000000000000

                66                  67                  68                  69                  70

    1     0.34547667926211     0.45185960280392     0.12614494079879     0.00000000000000     0.00000000000000
    2     1.03707436214874     1.34503703317071     0.34153747711086     0.00000000000000     0.00000000000000
    3     2.55776021600773     3.34052380257316     0.54446846059729     0.00000000000000     0.00000000000000
    4    -0.19002982943407    -0.16208749034100    -0.10743045375467     0.00000000000000     0.00000000000000
    5     0.00000000000000     0.00000000000000     0.00000000000000     0.07941944038006     0.00000000000000
    6     0.00000000000000     0.00000000000000     0.00000000000000     0.00000000000000     0.07941944038006
    7    -0.39238314066340    -0.33761158842997    -0.17001917317138     0.00000000000000     0.00000000000000
    8     0.00000000000000     0.00000000000000     0.00000000000000     0.16432005753295     0.00000000000000
    9     0.00000000000000     0.00000000000000     0.00000000000000     0.00000000000000     0.16432005753295
   10     0.14829765837513     0.07215499113915     0.06452863498214     0.00000000000000     0.00000000000000
   11     0.00000000000000     0.00000000000000     0.00000000000000    -0.11910601539016     0.00000000000000
   12     0.00000000000000     0.00000000000000     0.00000000000000     0.00000000000000    -0.11910601539016
   13     0.00000000000000     0.00000000000000     0.00000000000000     0.00000000000000     0.00000000000000
   14     0.00000000000000     0.00000000000000     0.00000000000000     0.00000000000000     0.00000000000000
   15     0.69837060195305     0.63529679664798     0.00000000000000     0.00000000000000     0.00000000000000
   16     1.78681734989852     1.81653520700661     0.00000000000000     0.00000000000000     0.00000000000000
   17     3.45094097606463     4.11263206828534     0.00000000000000     0.00000000000000     0.00000000000000
   18    -0.00000000000000    -0.00000000000000     0.35282996876792     0.00000000000000     0.00000000000000
   19     0.00000000000000     0.00000000000000     0.00000000000000     0.35282996876792     0.00000000000000
   20     0.00000000000000     0.00000000000000     0.00000000000000     0.00000000000000     0.35282996876792
   21     0.00000000000000     0.00000000000000     0.55238358279355     0.00000000000000     0.00000000000000
   22     0.00000000000000     0.00000000000000     0.00000000000000     0.55238358279355     0.00000000000000
   23     0.00000000000000     0.00000000000000     0.00000000000000     0.00000000000000     0.55238358279355
   24     0.00000000000000     0.00000000000000    -0.00000000000000     0.00000000000000     0.00000000000000
   25     0.00000000000000     0.00000000000000     0.00000000000000    -0.00000000000000     0.00000000000000
   26     0.00000000000000     0.00000000000000     0.00000000000000     0.00000000000000    -0.00000000000000
   27     0.00000000000000     0.00000000000000     0.00000000000000     0.00000000000000     0.00000000000000
   28     0.00000000000000     0.00000000000000     0.00000000000000     0.00000000000000     0.00000000000000

                71                  72                  73                  74                  75

    1     0.33269877533631     0.20431131617414    -0.38515245658605     0.00000000000000     0.00000000000000
    2     0.86185220714742     0.56350364334679    -1.07544769459211     0.00000000000000     0.00000000000000
    3     1.64023931216296     1.10457532781819    -2.15114783445347     0.00000000000000     0.00000000000000
    4    -0.19188696581845    -0.13215830582682     0.30777266871850     0.00000000000000     0.00000000000000
    5     0.00000000000000     0.00000000000000     0.00000000000000     0.12433986250725     0.00000000000000
    6     0.00000000000000     0.00000000000000     0.00000000000000     0.00000000000000     0.12433986250725
    7    -0.29607351306974    -0.21923423705043     0.49255689262554     0.00000000000000     0.00000000000000
    8     0.00000000000000     0.00000000000000     0.00000000000000     0.18941917604403     0.00000000000000
    9     0.00000000000000     0.00000000000000     0.00000000000000     0.00000000000000     0.18941917604403
   10     0.09194208134291     0.07083946160931    -0.19667548825392     0.00000000000000     0.00000000000000
   11     0.00000000000000     0.00000000000000     0.00000000000000    -0.10566537115250     0.00000000000000
   12     0.00000000000000     0.00000000000000     0.00000000000000     0.00000000000000    -0.10566537115250
   13     0.00000000000000     0.00000000000000     0.00000000000000     0.00000000000000     0.00000000000000
   14     0.00000000000000     0.00000000000000     0.00000000000000     0.00000000000000     0.00000000000000
   15     0.24688931267780     0.15044168348909    -0.38515245658605     0.00000000000000     0.00000000000000
   16     0.70834077633252     0.43032600275316    -1.07544769459211     0.00000000000000     0.00000000000000
   17     1.50236537235603     0.91117729575468    -2.15114783445347     0.00000000000000     0.00000000000000
   18     0.19462354037218     0.21965962628920    -0.30777266871850     0.00000000000000     0.00000000000000
   19     0.00000000000000     0.00000000000000     0.00000000000000     0.06721148838039     0.00000000000000
   20     0.00000000000000     0.00000000000000     0.00000000000000     0.00000000000000     0.06721148838039
   21     0.33278407824733     0.35198375582506    -0.49255689262554     0.00000000000000     0.00000000000000
   22     0.00000000000000     0.00000000000000     0.00000000000000     0.12084621288533     0.00000000000000
   23     0.00000000000000     0.00000000000000     0.00000000000000     0.00000000000000     0.12084621288533
   24     0.13307532017025     0.06075374626380    -0.19667548825392     0.00000000000000     0.00000000000000
   25     0.00000000000000     0.00000000000000     0.00000000000000     0.09884268694421     0.00000000000000
   26     0.00000000000000     0.00000000000000     0.00000000000000     0.00000000000000     0.09884268694421
   27     0.00000000000000     0.00000000000000     0.00000000000000     0.00000000000000     0.00000000000000
   28     0.00000000000000     0.00000000000000     0.00000000000000     0.00000000000000     0.00000000000000

                76                  77                  78                  79                  80

    1     0.14011767104622     0.12614494079879     0.57912250803417     0.00000000000000     0.00000000000000
    2     0.39234523170948     0.34153747711086     1.70719420755305     0.00000000000000     0.00000000000000
    3     0.62653257421253     0.54446846059729     3.94993306271746     0.00000000000000     0.00000000000000
    4    -0.14582271647385    -0.10743045375467    -0.39456768276881     0.00000000000000     0.00000000000000
    5     0.00000000000000     0.00000000000000     0.00000000000000     0.05974290003096     0.00000000000000
    6     0.00000000000000     0.00000000000000     0.00000000000000     0.00000000000000     0.05974290003096
    7    -0.24156744496257    -0.17001917317138    -0.73580038804122     0.00000000000000     0.00000000000000
    8     0.00000000000000     0.00000000000000     0.00000000000000     0.10994430287529     0.00000000000000
    9     0.00000000000000     0.00000000000000     0.00000000000000     0.00000000000000     0.10994430287529
   10     0.12507049189126     0.06452863498214     0.32504983747009     0.00000000000000     0.00000000000000
   11     0.00000000000000     0.00000000000000     0.00000000000000    -0.09970938300493     0.00000000000000
   12     0.00000000000000     0.00000000000000     0.00000000000000     0.00000000000000    -0.09970938300493
   13     0.00000000000000     0.00000000000000     0.00000000000000     0.00000000000000     0.00000000000000
   14     0.00000000000000     0.00000000000000     0.00000000000000     0.00000000000000     0.00000000000000
   15     0.00000000000000     0.00000000000000     1.03717320065125     0.00000000000000     0.00000000000000
   16     0.00000000000000     0.00000000000000     2.76522139851981     0.00000000000000     0.00000000000000
   17     0.00000000000000     0.00000000000000     5.25152850991984     0.00000000000000     0.00000000000000
   18     0.56449653285425     0.35282996876792    -0.00000000000000     0.00000000000000     0.00000000000000
   19     0.00000000000000     0.00000000000000     0.00000000000000     0.00000000000000     0.00000000000000
   20     0.00000000000000     0.00000000000000     0.00000000000000     0.00000000000000     0.00000000000000
   21     0.79155219962578     0.55238358279355     0.00000000000000     0.00000000000000     0.00000000000000
   22     0.00000000000000     0.00000000000000     0.00000000000000     0.00000000000000     0.00000000000000
   23     0.00000000000000     0.00000000000000     0.00000000000000     0.00000000000000     0.00000000000000
   24     0.00000000000000    -0.00000000000000     0.36552199952789     0.00000000000000     0.00000000000000
   25     0.00000000000000     0.00000000000000     0.00000000000000     0.31655133723324     0.00000000000000
   26     0.00000000000000     0.00000000000000     0.00000000000000     0.00000000000000     0.31655133723324
   27     0.00000000000000     0.00000000000000     0.00000000000000     0.00000000000000     0.00000000000000
   28     0.00000000000000     0.00000000000000     0.00000000000000     0.00000000000000     0.00000000000000

                81                  82                  83                  84                  85

    1     0.00000000000000     0.00000000000000     0.00000000000000     0.11950832656906     0.00000000000000
    2     0.00000000000000     0.00000000000000     0.00000000000000     0.34507154522349     0.00000000000000
    3     0.00000000000000     0.00000000000000     0.00000000000000     0.73651443082881     0.00000000000000
    4     0.00000000000000     0.00000000000000     0.00000000000000    -0.06721148838039     0.00000000000000
    5     0.05610207542156     0.06488284749994    -0.06721148838039     0.00000000000000     0.00000000000000
    6     0.00000000000000     0.00000000000000     0.00000000000000     0.00000000000000     0.00000000000000
    7     0.00000000000000     0.00000000000000     0.00000000000000    -0.12084621288533     0.00000000000000
    8     0.09631129014388     0.12768623320812    -0.12084621288533     0.00000000000000     0.00000000000000
    9     0.00000000000000     0.00000000000000     0.00000000000000     0.00000000000000     0.00000000000000
   10     0.00000000000000     0.00000000000000     0.00000000000000     0.02548372273026     0.00000000000000
   11    -0.06529234855585    -0.08936615173127     0.09884268694421     0.00000000000000     0.00000000000000
   12     0.00000000000000     0.00000000000000     0.00000000000000     0.00000000000000     0.00000000000000
   13     0.00000000000000     0.00000000000000     0.00000000000000     0.02735179220470     0.00000000000000
   14     0.00000000000000     0.00000000000000     0.00000000000000     0.00000000000000     0.02735179220470
   15     0.00000000000000     0.00000000000000     0.00000000000000     0.11950832656906     0.00000000000000
   16     0.00000000000000     0.00000000000000     0.00000000000000     0.34507154522349     0.00000000000000
   17     0.00000000000000     0.00000000000000     0.00000000000000     0.73651443082881     0.00000000000000
   18     0.00000000000000     0.00000000000000     0.00000000000000     0.06721148838039     0.00000000000000
   19     0.08372609472863     0.19862747176790    -0.12433986250725     0.00000000000000     0.00000000000000
   20     0.00000000000000     0.00000000000000     0.00000000000000     0.00000000000000     0.00000000000000
   21     0.00000000000000     0.00000000000000     0.00000000000000     0.12084621288533     0.00000000000000
   22     0.13192703994311     0.31357541832991    -0.18941917604403     0.00000000000000     0.00000000000000
   23     0.00000000000000     0.00000000000000     0.00000000000000     0.00000000000000     0.00000000000000
   24     0.00000000000000     0.00000000000000     0.00000000000000     0.02548372273026     0.00000000000000
   25     0.06447934078893     0.04996931141402    -0.10566537115250     0.00000000000000     0.00000000000000
   26     0.00000000000000     0.00000000000000     0.00000000000000     0.00000000000000     0.00000000000000
   27     0.00000000000000     0.00000000000000     0.00000000000000     0.02735179220470     0.00000000000000
   28     0.00000000000000     0.00000000000000     0.00000000000000     0.00000000000000     0.02735179220470

                86                  87                  88                  89                  90

[...]
   15     0.00139745736047     0.00000000000000     0.00000000000000    -0.08123674606257
   16    -0.07496824083737     0.00000000000000     0.00000000000000    -0.09697344452131
   17    -0.17318376117041     0.00000000000000     0.00000000000000    -0.00097233222010
   18    -0.30850710685630     0.00000000000000     0.00000000000000    -0.15531673509610
   19    -0.00000000000000    -0.21839660634842    -0.03496097717409    -0.00000000000000
   20     0.00000000000000    -0.03496097717409     0.21839660634842     0.00000000000000
   21    -0.45386961700005     0.00000000000000     0.00000000000000    -0.15596916594467
   22    -0.00000000000000    -0.28831295628188    -0.04615320197551    -0.00000000000000
   23     0.00000000000000    -0.04615320197551     0.28831295628189     0.00000000000000
   24    -0.06147125108841     0.00000000000000     0.00000000000000     0.13762159090211
   25    -0.00000000000000     0.07011779416129     0.01122447203808    -0.00000000000000
   26    -0.00000000000000     0.01122447203808    -0.07011779416129     0.00000000000000
   27    -0.00000000000000    -0.00000000000000    -0.00000000000000    -0.00000000000000
   28    -0.00000000000000    -0.00000000000000     0.00000000000000    -0.00000000000000



  ## SO Basis Fitting Inverse (Eig) (Symmetry 0) ##
  Irrep: 1 Size: 28 x 28

                 1                   2                   3                   4                   5

    1     1.51143929818980    -0.76956649785962     0.06871649135756    -0.06015472484662    -0.00000000000000
    2    -0.76956649785962     1.18596877356153    -0.30406961566860     0.02265260341748     0.00000000000000
    3     0.06871649135756    -0.30406961566860     0.47738572137977     0.16789839433752     0.00000000000000
    4    -0.06015472484662     0.02265260341748     0.16789839433752     1.89855026722465     0.00000000000000
    5    -0.00000000000000     0.00000000000000     0.00000000000000     0.00000000000000     1.60288248565995
    6    -0.00000000000000     0.00000000000000     0.00000000000000     0.00000000000000    -0.00000000000000
    7     0.14854521128657    -0.14846463653257    -0.35702856301456    -1.31298253794301    -0.00000000000000
    8     0.00000000000000    -0.00000000000000    -0.00000000000000    -0.00000000000000    -0.87063530209887
    9    -0.00000000000000    -0.00000000000000    -0.00000000000000    -0.00000000000000     0.00000000000000
   10    -0.07995062211974     0.10025961041237     0.12607012778916     0.18801197575720     0.00000000000000
   11    -0.00000000000000     0.00000000000000     0.00000000000000     0.00000000000000     0.04949994157603
   12     0.00000000000000    -0.00000000000000     0.00000000000000     0.00000000000000    -0.00000000000000
   13    -0.00000000000000    -0.00000000000000    -0.00000000000000    -0.00000000000000     0.00000000000000
   14    -0.00000000000000    -0.00000000000000    -0.00000000000000     0.00000000000000    -0.00000000000000
   15    -0.06602486355213     0.08451378620801     0.02094660449477     0.09681161349456     0.00000000000000
   16     0.08451378620800    -0.10934720453228    -0.01292817211683    -0.14803194970841    -0.00000000000000
   17     0.02094660449477    -0.01292817211683    -0.24928054604463    -0.12754288851756    -0.00000000000000
   18    -0.09681161349457     0.14803194970842     0.12754288851757     0.17172036850354     0.00000000000000
   19    -0.00000000000000     0.00000000000000    -0.00000000000000    -0.00000000000000    -0.08504956961120
   20    -0.00000000000000     0.00000000000000    -0.00000000000000    -0.00000000000000    -0.00000000000000
   21     0.19331902471574    -0.30158213815839    -0.32247145142538    -0.37511417401942    -0.00000000000000
   22     0.00000000000000     0.00000000000000     0.00000000000000     0.00000000000000     0.11467822126157
   23     0.00000000000000    -0.00000000000000     0.00000000000000     0.00000000000000    -0.00000000000000
   24     0.10407280804948    -0.22595488704822    -0.08282587332891    -0.07162257005090    -0.00000000000000
   25    -0.00000000000000     0.00000000000000     0.00000000000000     0.00000000000000     0.05769832570950
   26    -0.00000000000000     0.00000000000000     0.00000000000000     0.00000000000000    -0.00000000000000
   27     0.00000000000000    -0.00000000000000     0.00000000000000    -0.00000000000000    -0.00000000000000
   28    -0.00000000000000    -0.00000000000000    -0.00000000000000     0.00000000000000     0.00000000000000

                 6                   7                   8                   9                  10

    1    -0.00000000000000     0.14854521128657     0.00000000000000    -0.00000000000000    -0.07995062211974
    2     0.00000000000000    -0.14846463653257    -0.00000000000000    -0.00000000000000     0.10025961041237
    3     0.00000000000000    -0.35702856301456    -0.00000000000000    -0.00000000000000     0.12607012778916
    4     0.00000000000000    -1.31298253794301    -0.00000000000000    -0.00000000000000     0.18801197575720
    5    -0.00000000000000    -0.00000000000000    -0.87063530209887     0.00000000000000     0.00000000000000
    6     1.60288248565997    -0.00000000000000     0.00000000000000    -0.87063530209889     0.00000000000000
    7    -0.00000000000000     1.93065537260096     0.00000000000000     0.00000000000000    -0.40434823611502
    8     0.00000000000000     0.00000000000000     1.07141057802348    -0.00000000000000    -0.00000000000000
    9    -0.87063530209889     0.00000000000000    -0.00000000000000     1.07141057802349    -0.00000000000000
   10     0.00000000000000    -0.40434823611503    -0.00000000000000    -0.00000000000000     0.88487956717381
   11     0.00000000000000    -0.00000000000000    -0.09123416470621    -0.00000000000000     0.00000000000000
   12     0.04949994157603    -0.00000000000000     0.00000000000000    -0.09123416470622     0.00000000000000
   13    -0.00000000000000     0.00000000000000     0.00000000000000     0.00000000000000    -0.00000000000000
   14     0.00000000000000     0.00000000000000    -0.00000000000000     0.00000000000000    -0.00000000000000
   15     0.00000000000000    -0.19331902471573    -0.00000000000000    -0.00000000000000     0.10407280804947
   16    -0.00000000000000     0.30158213815838     0.00000000000000     0.00000000000000    -0.22595488704822
   17    -0.00000000000000     0.32247145142538     0.00000000000000     0.00000000000000    -0.08282587332891
   18     0.00000000000000    -0.37511417401945    -0.00000000000000    -0.00000000000000     0.07162257005091
   19    -0.00000000000000     0.00000000000000     0.11467822126157    -0.00000000000000    -0.00000000000000
   20    -0.08504956961122     0.00000000000000     0.00000000000000     0.11467822126159    -0.00000000000000
   21    -0.00000000000000     0.92071115419502     0.00000000000000     0.00000000000000    -0.36042849448507
   22    -0.00000000000000    -0.00000000000000    -0.20665290086819     0.00000000000000     0.00000000000000
   23     0.11467822126159    -0.00000000000000     0.00000000000000    -0.20665290086820     0.00000000000000
   24     0.00000000000000     0.36042849448507     0.00000000000000     0.00000000000000    -0.20827349379905
   25    -0.00000000000000    -0.00000000000000    -0.15620825258576     0.00000000000000     0.00000000000000
   26     0.05769832570950    -0.00000000000000     0.00000000000000    -0.15620825258577     0.00000000000000
   27     0.00000000000000    -0.00000000000000    -0.00000000000000     0.00000000000000     0.00000000000000
   28     0.00000000000000     0.00000000000000     0.00000000000000     0.00000000000000    -0.00000000000000

                11                  12                  13                  14                  15

    1    -0.00000000000000     0.00000000000000    -0.00000000000000    -0.00000000000000    -0.06602486355213
    2     0.00000000000000    -0.00000000000000    -0.00000000000000    -0.00000000000000     0.08451378620801
    3     0.00000000000000     0.00000000000000    -0.00000000000000    -0.00000000000000     0.02094660449477
    4     0.00000000000000     0.00000000000000    -0.00000000000000     0.00000000000000     0.09681161349456
    5     0.04949994157603    -0.00000000000000     0.00000000000000    -0.00000000000000     0.00000000000000
    6     0.00000000000000     0.04949994157603    -0.00000000000000     0.00000000000000     0.00000000000000
    7    -0.00000000000000    -0.00000000000000     0.00000000000000     0.00000000000000    -0.19331902471573
    8    -0.09123416470621     0.00000000000000     0.00000000000000    -0.00000000000000    -0.00000000000000
    9    -0.00000000000000    -0.09123416470622     0.00000000000000     0.00000000000000    -0.00000000000000
   10     0.00000000000000     0.00000000000000    -0.00000000000000    -0.00000000000000     0.10407280804947
   11     0.76585340812974    -0.00000000000000     0.00000000000000     0.00000000000000     0.00000000000000
   12    -0.00000000000000     0.76585340812974     0.00000000000000    -0.00000000000000    -0.00000000000000
   13     0.00000000000000     0.00000000000000     0.68851060544901     0.00000000000000    -0.00000000000000
   14     0.00000000000000    -0.00000000000000     0.00000000000000     0.68851060544901    -0.00000000000000
   15     0.00000000000000    -0.00000000000000    -0.00000000000000    -0.00000000000000     1.51143929818981
   16    -0.00000000000000     0.00000000000000    -0.00000000000000    -0.00000000000000    -0.76956649785962
   17    -0.00000000000000    -0.00000000000000    -0.00000000000000    -0.00000000000000     0.06871649135756
   18     0.00000000000000     0.00000000000000     0.00000000000000    -0.00000000000000     0.06015472484662
   19    -0.05769832570950     0.00000000000000    -0.00000000000000    -0.00000000000000    -0.00000000000000
   20     0.00000000000000    -0.05769832570950     0.00000000000000    -0.00000000000000     0.00000000000000
   21    -0.00000000000000    -0.00000000000000    -0.00000000000000    -0.00000000000000    -0.14854521128658
   22     0.15620825258576    -0.00000000000000    -0.00000000000000    -0.00000000000000     0.00000000000000
   23    -0.00000000000000     0.15620825258577     0.00000000000000     0.00000000000000     0.00000000000000
   24    -0.00000000000000    -0.00000000000000    -0.00000000000000    -0.00000000000000    -0.07995062211974
   25     0.16312876198691     0.00000000000000    -0.00000000000000    -0.00000000000000     0.00000000000000
   26    -0.00000000000000     0.16312876198691    -0.00000000000000     0.00000000000000    -0.00000000000000
   27    -0.00000000000000    -0.00000000000000    -0.05081207908371    -0.00000000000000     0.00000000000000
   28    -0.00000000000000    -0.00000000000000     0.00000000000000    -0.05081207908371    -0.00000000000000

                16                  17                  18                  19                  20

    1     0.08451378620800     0.02094660449477    -0.09681161349457    -0.00000000000000    -0.00000000000000
    2    -0.10934720453228    -0.01292817211683     0.14803194970842     0.00000000000000     0.00000000000000
    3    -0.01292817211683    -0.24928054604463     0.12754288851757    -0.00000000000000    -0.00000000000000
    4    -0.14803194970841    -0.12754288851756     0.17172036850353    -0.00000000000000    -0.00000000000000
    5    -0.00000000000000    -0.00000000000000     0.00000000000000    -0.08504956961120    -0.00000000000000
    6    -0.00000000000000    -0.00000000000000     0.00000000000000    -0.00000000000000    -0.08504956961122
    7     0.30158213815838     0.32247145142538    -0.37511417401945     0.00000000000000     0.00000000000000
    8     0.00000000000000     0.00000000000000    -0.00000000000000     0.11467822126157     0.00000000000000
    9     0.00000000000000     0.00000000000000    -0.00000000000000    -0.00000000000000     0.11467822126159
   10    -0.22595488704822    -0.08282587332891     0.07162257005091    -0.00000000000000    -0.00000000000000
   11    -0.00000000000000    -0.00000000000000     0.00000000000000    -0.05769832570950     0.00000000000000
   12     0.00000000000000    -0.00000000000000     0.00000000000000     0.00000000000000    -0.05769832570950
   13    -0.00000000000000    -0.00000000000000     0.00000000000000    -0.00000000000000     0.00000000000000
   14    -0.00000000000000    -0.00000000000000    -0.00000000000000    -0.00000000000000    -0.00000000000000
   15    -0.76956649785962     0.06871649135756     0.06015472484662    -0.00000000000000     0.00000000000000
   16     1.18596877356154    -0.30406961566860    -0.02265260341748     0.00000000000000     0.00000000000000
   17    -0.30406961566860     0.47738572137977    -0.16789839433754     0.00000000000000    -0.00000000000000
   18    -0.02265260341748    -0.16789839433754     1.89855026722475    -0.00000000000000     0.00000000000000
   19     0.00000000000000     0.00000000000000    -0.00000000000000     1.60288248565996     0.00000000000000
   20     0.00000000000000    -0.00000000000000     0.00000000000000     0.00000000000000     1.60288248565997
   21     0.14846463653257     0.35702856301457    -1.31298253794310     0.00000000000000    -0.00000000000000
   22    -0.00000000000000    -0.00000000000000     0.00000000000000    -0.87063530209887    -0.00000000000000
   23     0.00000000000000    -0.00000000000000    -0.00000000000000    -0.00000000000000    -0.87063530209888
   24     0.10025961041237     0.12607012778916    -0.18801197575722     0.00000000000000    -0.00000000000000
   25    -0.00000000000000    -0.00000000000000     0.00000000000000    -0.04949994157603     0.00000000000000
   26     0.00000000000000    -0.00000000000000     0.00000000000000    -0.00000000000000    -0.04949994157603
   27     0.00000000000000     0.00000000000000    -0.00000000000000     0.00000000000000     0.00000000000000
   28    -0.00000000000000    -0.00000000000000    -0.00000000000000     0.00000000000000    -0.00000000000000

                21                  22                  23                  24                  25

    1     0.19331902471574     0.00000000000000     0.00000000000000     0.10407280804948    -0.00000000000000
    2    -0.30158213815839     0.00000000000000    -0.00000000000000    -0.22595488704822     0.00000000000000
    3    -0.32247145142538     0.00000000000000     0.00000000000000    -0.08282587332891     0.00000000000000
    4    -0.37511417401942     0.00000000000000     0.00000000000000    -0.07162257005090     0.00000000000000
    5    -0.00000000000000     0.11467822126157    -0.00000000000000    -0.00000000000000     0.05769832570950
    6    -0.00000000000000    -0.00000000000000     0.11467822126159     0.00000000000000    -0.00000000000000
    7     0.92071115419502    -0.00000000000000    -0.00000000000000     0.36042849448507    -0.00000000000000
    8     0.00000000000000    -0.20665290086819     0.00000000000000     0.00000000000000    -0.15620825258576
    9     0.00000000000000     0.00000000000000    -0.20665290086820     0.00000000000000     0.00000000000000
   10    -0.36042849448507     0.00000000000000     0.00000000000000    -0.20827349379905     0.00000000000000
   11    -0.00000000000000     0.15620825258576    -0.00000000000000    -0.00000000000000     0.16312876198691
   12    -0.00000000000000    -0.00000000000000     0.15620825258577    -0.00000000000000     0.00000000000000
   13    -0.00000000000000    -0.00000000000000     0.00000000000000    -0.00000000000000    -0.00000000000000
   14    -0.00000000000000    -0.00000000000000     0.00000000000000    -0.00000000000000    -0.00000000000000
   15    -0.14854521128658     0.00000000000000     0.00000000000000    -0.07995062211974     0.00000000000000
   16     0.14846463653257    -0.00000000000000     0.00000000000000     0.10025961041237    -0.00000000000000
   17     0.35702856301457    -0.00000000000000    -0.00000000000000     0.12607012778916    -0.00000000000000
   18    -1.31298253794310     0.00000000000000    -0.00000000000000    -0.18801197575722     0.00000000000000
   19     0.00000000000000    -0.87063530209887    -0.00000000000000     0.00000000000000    -0.04949994157603
   20    -0.00000000000000    -0.00000000000000    -0.87063530209888    -0.00000000000000     0.00000000000000
   21     1.93065537260104    -0.00000000000000     0.00000000000000     0.40434823611504    -0.00000000000000
   22    -0.00000000000000     1.07141057802348     0.00000000000000    -0.00000000000000     0.09123416470621
   23     0.00000000000000     0.00000000000000     1.07141057802349     0.00000000000000    -0.00000000000000
   24     0.40434823611504    -0.00000000000000     0.00000000000000     0.88487956717382    -0.00000000000000
   25    -0.00000000000000     0.09123416470621    -0.00000000000000    -0.00000000000000     0.76585340812974
   26    -0.00000000000000     0.00000000000000     0.09123416470622    -0.00000000000000    -0.00000000000000
   27    -0.00000000000000     0.00000000000000    -0.00000000000000     0.00000000000000    -0.00000000000000
   28    -0.00000000000000     0.00000000000000     0.00000000000000    -0.00000000000000     0.00000000000000

                26                  27                  28

    1    -0.00000000000000     0.00000000000000    -0.00000000000000
    2     0.00000000000000    -0.00000000000000    -0.00000000000000
    3     0.00000000000000     0.00000000000000    -0.00000000000000
    4     0.00000000000000    -0.00000000000000     0.00000000000000
    5    -0.00000000000000    -0.00000000000000     0.00000000000000
    6     0.05769832570950     0.00000000000000     0.00000000000000
    7    -0.00000000000000    -0.00000000000000     0.00000000000000
    8     0.00000000000000    -0.00000000000000     0.00000000000000
    9    -0.15620825258577     0.00000000000000     0.00000000000000
   10     0.00000000000000     0.00000000000000    -0.00000000000000
   11    -0.00000000000000    -0.00000000000000    -0.00000000000000
   12     0.16312876198691    -0.00000000000000    -0.00000000000000
   13    -0.00000000000000    -0.05081207908371     0.00000000000000
   14     0.00000000000000    -0.00000000000000    -0.05081207908371
   15    -0.00000000000000     0.00000000000000    -0.00000000000000
   16     0.00000000000000     0.00000000000000    -0.00000000000000
   17    -0.00000000000000     0.00000000000000    -0.00000000000000
   18     0.00000000000000    -0.00000000000000    -0.00000000000000
   19    -0.00000000000000     0.00000000000000     0.00000000000000
   20    -0.04949994157603     0.00000000000000    -0.00000000000000
   21    -0.00000000000000    -0.00000000000000    -0.00000000000000
   22     0.00000000000000     0.00000000000000     0.00000000000000
   23     0.09123416470622    -0.00000000000000     0.00000000000000
   24    -0.00000000000000     0.00000000000000    -0.00000000000000
   25    -0.00000000000000    -0.00000000000000     0.00000000000000
   26     0.76585340812974     0.00000000000000     0.00000000000000
   27     0.00000000000000     0.68851060544901     0.00000000000000
   28     0.00000000000000     0.00000000000000     0.68851060544901




MP2_energy =      -0.030839417277  ==> DF Tensor (by Rob Parrish) <==

 => Primary Basis Set <= 

  Basis Set: CC-PVDZ
    Number of shells: 6
    Number of basis function: 10
    Number of Cartesian functions: 10
    Spherical Harmonics?: true
    Max angular momentum: 1

 => Auxiliary Basis Set <= 

  Basis Set: CC-PVDZ-RI
    Number of shells: 12
    Number of basis function: 28
    Number of Cartesian functions: 30
    Spherical Harmonics?: true
    Max angular momentum: 2


*** PSI4 exiting successfully. Buy a developer a beer!
