    -----------------------------------------------------------------------
          PSI4: An Open-Source Ab Initio Electronic Structure Package
                              PSI 4.0 Driver

               Git: Rev {master} 556e8139d3cfa1f96ccffe2cdf22cc56a185d2b2

    J. M. Turney, A. C. Simmonett, R. M. Parrish, E. G. Hohenstein,
    F. A. Evangelista, J. T. Fermann, B. J. Mintz, L. A. Burns, J. J. Wilke,
    M. L. Abrams, N. J. Russ, M. L. Leininger, C. L. Janssen, E. T. Seidl,
    W. D. Allen, H. F. Schaefer, R. A. King, E. F. Valeev, C. D. Sherrill,
    and T. D. Crawford, WIREs Comput. Mol. Sci. 2, 556-565 (2012)
    (doi: 10.1002/wcms.93)

                         Additional Contributions by
    A. E. DePrince, M. Saitow, U. Bozkaya, A. Yu. Sokolov
    -----------------------------------------------------------------------

    Process ID:  57025
    PSI4DATADIR: /Users/kevinhannon/Programs/psi4cmake/psi4/lib
    Memory level set to 256.000 MB

  ==> Input File <==

--------------------------------------------------------------------------

# PYTHONPATH must include directory above plugin directory.
#     Define either externally or here, then import plugin.
sys.path.insert(0, './..')
import dfmp2

molecule {
0 1
H 0.00  0.00 1.2
H 0.00  0.00 0.00
H -4.00 -4.00 -4.00
H -4.00 -4.00 -5.2
}

set {
  basis sto-3g
  df_basis_mp2 cc-pvdz-ri
  freeze_core true
  memory 1gb
}

set dfmp2 {
  print 1
}
energy('scf')
energy('mp2')
energy('dfmp2')

dfmp2.exampleFN()

--------------------------------------------------------------------------

*** tstart() called on Kevins-MacBook-Pro.local
*** at Mon Jan 12 17:41:25 2015

dfmp2.so loaded.

*** tstart() called on Kevins-MacBook-Pro.local
*** at Mon Jan 12 17:41:25 2015


         ---------------------------------------------------------
                                   SCF
            by Justin Turney, Rob Parrish, and Andy Simmonett
                              RHF Reference
                        1 Threads,    256 MiB Core
         ---------------------------------------------------------

  ==> Geometry <==

    Molecular point group: c2h
    Full point group: C2h

    Geometry (in Angstrom), charge = 0, multiplicity = 1:

       Center              X                  Y                   Z       
    ------------   -----------------  -----------------  -----------------
           H          2.828427124746    -3.200000000000     0.000000000000
           H          2.828427124746    -2.000000000000     0.000000000000
           H         -2.828427124746     2.000000000000     0.000000000000
           H         -2.828427124746     3.200000000000     0.000000000000

  Running in c2h symmetry.

  Rotational constants: A =     21.67371  B =      0.28014  C =      0.27657 [cm^-1]
  Rotational constants: A = 649761.39959  B =   8398.42275  C =   8291.25501 [MHz]
  Nuclear repulsion =    1.158033974064691

  Charge       = 0
  Multiplicity = 1
  Electrons    = 4
  Nalpha       = 2
  Nbeta        = 2

  ==> Algorithm <==

  SCF Algorithm Type is DF.
  DIIS enabled.
  MOM disabled.
  Fractional occupation disabled.
  Guess Type is CORE.
  Energy threshold   = 1.00e-06
  Density threshold  = 1.00e-06
  Integral threshold = 0.00e+00

  ==> Primary Basis <==

  Basis Set: STO-3G
    Number of shells: 4
    Number of basis function: 4
    Number of Cartesian functions: 4
    Spherical Harmonics?: true
    Max angular momentum: 0

  ==> Pre-Iterations <==

   -------------------------------------------------------
    Irrep   Nso     Nmo     Nalpha   Nbeta   Ndocc  Nsocc
   -------------------------------------------------------
     Ag         2       2       0       0       0       0
     Bg         0       0       0       0       0       0
     Au         0       0       0       0       0       0
     Bu         2       2       0       0       0       0
   -------------------------------------------------------
    Total       4       4       2       2       2       0
   -------------------------------------------------------

 OEINTS: Overlap, kinetic, potential, dipole, and quadrupole integrals
         stored in file 35.

  ==> Integral Setup <==

  ==> DFJK: Density-Fitted J/K Matrices <==

    J tasked:                  Yes
    K tasked:                  Yes
    wK tasked:                  No
    OpenMP threads:              1
    Integrals threads:           1
    Memory (MB):               183
    Algorithm:                Core
    Integral Cache:           NONE
    Schwarz Cutoff:          1E-12
    Fitting Condition:       1E-12

   => Auxiliary Basis Set <=

  Basis Set: 
    Number of shells: 24
    Number of basis function: 56
    Number of Cartesian functions: 60
    Spherical Harmonics?: true
    Max angular momentum: 2

  Minimum eigenvalue in the overlap matrix is 6.1296741688E-01.
  Using Symmetric Orthogonalization.
  SCF Guess: Core (One-Electron) Hamiltonian.

  ==> Iterations <==

                           Total Energy        Delta E     RMS |[F,P]|

   @DF-RHF iter   1:    -2.00909170858736   -2.00909e+00   1.15734e-02 
   @DF-RHF iter   2:    -2.01041821473587   -1.32651e-03   5.41018e-04 DIIS
   @DF-RHF iter   3:    -2.01042111683381   -2.90210e-06   9.68414e-09 DIIS
   @DF-RHF iter   4:    -2.01042111683381   -1.77636e-15   4.26962e-11 DIIS

  ==> Post-Iterations <==

    Orbital Energies (a.u.)
    -----------------------

    Doubly Occupied:                                                      

       1Ag    -0.426639     1Bu    -0.426638  

    Virtual:                                                              

       2Ag     0.344221     2Bu     0.344221  

    Final Occupation by Irrep:
             Ag    Bg    Au    Bu 
    DOCC [     1,    0,    0,    1 ]

  Energy converged.

  @DF-RHF Final Energy:    -2.01042111683381

   => Energetics <=

    Nuclear Repulsion Energy =              1.1580339740646908
    One-Electron Energy =                  -4.6303562191056447
    Two-Electron Energy =                   1.4619011282071397
    DFT Exchange-Correlation Energy =       0.0000000000000000
    Empirical Dispersion Energy =           0.0000000000000000
    Total Energy =                         -2.0104211168338142



Properties will be evaluated at   0.000000,   0.000000,   0.000000 Bohr
  ==> Properties <==


Properties computed using the SCF density matrix

  Nuclear Dipole Moment: (a.u.)
     X:     0.0000      Y:     0.0000      Z:     0.0000

  Electronic Dipole Moment: (a.u.)
     X:     0.0000      Y:     0.0000      Z:     0.0000

  Dipole Moment: (a.u.)
     X:     0.0000      Y:     0.0000      Z:     0.0000     Total:     0.0000

  Dipole Moment: (Debye)
     X:     0.0000      Y:     0.0000      Z:     0.0000     Total:     0.0000


  Saving occupied orbitals to File 180.

*** tstop() called on Kevins-MacBook-Pro.local at Mon Jan 12 17:41:25 2015
Module time:
	user time   =       0.21 seconds =       0.00 minutes
	system time =       0.01 seconds =       0.00 minutes
	total time  =          0 seconds =       0.00 minutes
Total time:
	user time   =       0.22 seconds =       0.00 minutes
	system time =       0.01 seconds =       0.00 minutes
	total time  =          0 seconds =       0.00 minutes

*** tstart() called on Kevins-MacBook-Pro.local
*** at Mon Jan 12 17:41:25 2015


         ---------------------------------------------------------
                                   SCF
            by Justin Turney, Rob Parrish, and Andy Simmonett
                              RHF Reference
                        1 Threads,    256 MiB Core
         ---------------------------------------------------------

  ==> Geometry <==

    Molecular point group: c2h
    Full point group: C2h

    Geometry (in Angstrom), charge = 0, multiplicity = 1:

       Center              X                  Y                   Z       
    ------------   -----------------  -----------------  -----------------
           H          2.828427124746    -3.200000000000     0.000000000000
           H          2.828427124746    -2.000000000000     0.000000000000
           H         -2.828427124746     2.000000000000     0.000000000000
           H         -2.828427124746     3.200000000000     0.000000000000

  Running in c2h symmetry.

  Rotational constants: A =     21.67371  B =      0.28014  C =      0.27657 [cm^-1]
  Rotational constants: A = 649761.39959  B =   8398.42275  C =   8291.25501 [MHz]
  Nuclear repulsion =    1.158033974064691

  Charge       = 0
  Multiplicity = 1
  Electrons    = 4
  Nalpha       = 2
  Nbeta        = 2

  ==> Algorithm <==

  SCF Algorithm Type is DF.
  DIIS enabled.
  MOM disabled.
  Fractional occupation disabled.
  Guess Type is CORE.
  Energy threshold   = 1.00e-08
  Density threshold  = 1.00e-08
  Integral threshold = 0.00e+00

  ==> Primary Basis <==

  Basis Set: STO-3G
    Number of shells: 4
    Number of basis function: 4
    Number of Cartesian functions: 4
    Spherical Harmonics?: true
    Max angular momentum: 0

  ==> Pre-Iterations <==

   -------------------------------------------------------
    Irrep   Nso     Nmo     Nalpha   Nbeta   Ndocc  Nsocc
   -------------------------------------------------------
     Ag         2       2       0       0       0       0
     Bg         0       0       0       0       0       0
     Au         0       0       0       0       0       0
     Bu         2       2       0       0       0       0
   -------------------------------------------------------
    Total       4       4       2       2       2       0
   -------------------------------------------------------

 OEINTS: Overlap, kinetic, potential, dipole, and quadrupole integrals
         stored in file 35.

  ==> Integral Setup <==

  ==> DFJK: Density-Fitted J/K Matrices <==

    J tasked:                  Yes
    K tasked:                  Yes
    wK tasked:                  No
    OpenMP threads:              1
    Integrals threads:           1
    Memory (MB):               183
    Algorithm:                Core
    Integral Cache:           NONE
    Schwarz Cutoff:          1E-12
    Fitting Condition:       1E-12

   => Auxiliary Basis Set <=

  Basis Set: 
    Number of shells: 24
    Number of basis function: 56
    Number of Cartesian functions: 60
    Spherical Harmonics?: true
    Max angular momentum: 2

  Minimum eigenvalue in the overlap matrix is 6.1296741688E-01.
  Using Symmetric Orthogonalization.
  SCF Guess: Core (One-Electron) Hamiltonian.

  ==> Iterations <==

                           Total Energy        Delta E     RMS |[F,P]|

   @DF-RHF iter   1:    -2.00909170858736   -2.00909e+00   1.15734e-02 
   @DF-RHF iter   2:    -2.01041821473587   -1.32651e-03   5.41018e-04 DIIS
   @DF-RHF iter   3:    -2.01042111683381   -2.90210e-06   9.68414e-09 DIIS
   @DF-RHF iter   4:    -2.01042111683381   -1.77636e-15   4.26962e-11 DIIS

  ==> Post-Iterations <==

    Orbital Energies (a.u.)
    -----------------------

    Doubly Occupied:                                                      

       1Ag    -0.426639     1Bu    -0.426638  

    Virtual:                                                              

       2Ag     0.344221     2Bu     0.344221  

    Final Occupation by Irrep:
             Ag    Bg    Au    Bu 
    DOCC [     1,    0,    0,    1 ]

  Energy converged.

  @DF-RHF Final Energy:    -2.01042111683381

   => Energetics <=

    Nuclear Repulsion Energy =              1.1580339740646908
    One-Electron Energy =                  -4.6303562191056447
    Two-Electron Energy =                   1.4619011282071397
    DFT Exchange-Correlation Energy =       0.0000000000000000
    Empirical Dispersion Energy =           0.0000000000000000
    Total Energy =                         -2.0104211168338142



Properties will be evaluated at   0.000000,   0.000000,   0.000000 Bohr
  ==> Properties <==


Properties computed using the SCF density matrix

  Nuclear Dipole Moment: (a.u.)
     X:     0.0000      Y:     0.0000      Z:     0.0000

  Electronic Dipole Moment: (a.u.)
     X:     0.0000      Y:     0.0000      Z:     0.0000

  Dipole Moment: (a.u.)
     X:     0.0000      Y:     0.0000      Z:     0.0000     Total:     0.0000

  Dipole Moment: (Debye)
     X:     0.0000      Y:     0.0000      Z:     0.0000     Total:     0.0000


  Saving occupied orbitals to File 180.

*** tstop() called on Kevins-MacBook-Pro.local at Mon Jan 12 17:41:25 2015
Module time:
	user time   =       0.20 seconds =       0.00 minutes
	system time =       0.01 seconds =       0.00 minutes
	total time  =          0 seconds =       0.00 minutes
Total time:
	user time   =       0.43 seconds =       0.01 minutes
	system time =       0.02 seconds =       0.00 minutes
	total time  =          0 seconds =       0.00 minutes

  //>>>>>>>>>>>>>>>>>>>>>>>>>>>>>>>>>>>//
  //               DFMP2               //
  //<<<<<<<<<<<<<<<<<<<<<<<<<<<<<<<<<<<//


*** tstart() called on Kevins-MacBook-Pro.local
*** at Mon Jan 12 17:41:25 2015

	 --------------------------------------------------------
	                          DF-MP2                         
	      2nd-Order Density-Fitted Moller-Plesset Theory     
	              RMP2 Wavefunction,   1 Threads             
	                                                         
	        Rob Parrish, Justin Turney, Andy Simmonett,      
	           Ed Hohenstein, and C. David Sherrill          
	 --------------------------------------------------------

   => Auxiliary Basis Set <=

  Basis Set: CC-PVDZ-RI
    Number of shells: 24
    Number of basis function: 56
    Number of Cartesian functions: 60
    Spherical Harmonics?: true
    Max angular momentum: 2

	 --------------------------------------------------------
	                 NBF =     4, NAUX =    56
	 --------------------------------------------------------
	   CLASS    FOCC     OCC    AOCC    AVIR     VIR    FVIR
	   PAIRS       0       2       2       2       2       0
	 --------------------------------------------------------

	----------------------------------------------------------
	 ==================> DF-MP2 Energies <=================== 
	----------------------------------------------------------
	 Reference Energy          =      -2.0104211168338146 [H]
	 Singles Energy            =      -0.0000000000000000 [H]
	 Same-Spin Energy          =      -0.0000000394635544 [H]
	 Opposite-Spin Energy      =      -0.0570869124063457 [H]
	 Correlation Energy        =      -0.0570869518699002 [H]
	 Total Energy              =      -2.0675080687037148 [H]
	----------------------------------------------------------
	 ================> DF-SCS-MP2 Energies <================= 
	----------------------------------------------------------
	 SCS Same-Spin Scale       =       0.3333333333333333 [-]
	 SCS Opposite-Spin Scale   =       1.2000000000000000 [-]
	 SCS Same-Spin Energy      =      -0.0000000131545181 [H]
	 SCS Opposite-Spin Energy  =      -0.0685042948876149 [H]
	 SCS Correlation Energy    =      -0.0685043080421330 [H]
	 SCS Total Energy          =      -2.0789254248759477 [H]
	----------------------------------------------------------


*** tstop() called on Kevins-MacBook-Pro.local at Mon Jan 12 17:41:25 2015
Module time:
	user time   =       0.10 seconds =       0.00 minutes
	system time =       0.00 seconds =       0.00 minutes
	total time  =          0 seconds =       0.00 minutes
Total time:
	user time   =       0.53 seconds =       0.01 minutes
	system time =       0.02 seconds =       0.00 minutes
	total time  =          0 seconds =       0.00 minutes

*** tstart() called on Kevins-MacBook-Pro.local
*** at Mon Jan 12 17:41:25 2015


         ---------------------------------------------------------
                                   SCF
            by Justin Turney, Rob Parrish, and Andy Simmonett
                              RHF Reference
                        1 Threads,    256 MiB Core
         ---------------------------------------------------------

  ==> Geometry <==

    Molecular point group: c2h
    Full point group: C2h

    Geometry (in Angstrom), charge = 0, multiplicity = 1:

       Center              X                  Y                   Z       
    ------------   -----------------  -----------------  -----------------
           H          2.828427124746    -3.200000000000     0.000000000000
           H          2.828427124746    -2.000000000000     0.000000000000
           H         -2.828427124746     2.000000000000     0.000000000000
           H         -2.828427124746     3.200000000000     0.000000000000

  Running in c2h symmetry.

  Rotational constants: A =     21.67371  B =      0.28014  C =      0.27657 [cm^-1]
  Rotational constants: A = 649761.39959  B =   8398.42275  C =   8291.25501 [MHz]
  Nuclear repulsion =    1.158033974064691

  Charge       = 0
  Multiplicity = 1
  Electrons    = 4
  Nalpha       = 2
  Nbeta        = 2

  ==> Algorithm <==

  SCF Algorithm Type is PK.
  DIIS enabled.
  MOM disabled.
  Fractional occupation disabled.
  Guess Type is CORE.
  Energy threshold   = 1.00e-08
  Density threshold  = 1.00e-08
  Integral threshold = 0.00e+00

  ==> Primary Basis <==

  Basis Set: STO-3G
    Number of shells: 4
    Number of basis function: 4
    Number of Cartesian functions: 4
    Spherical Harmonics?: true
    Max angular momentum: 0

  ==> Pre-Iterations <==

   -------------------------------------------------------
    Irrep   Nso     Nmo     Nalpha   Nbeta   Ndocc  Nsocc
   -------------------------------------------------------
     Ag         2       2       0       0       0       0
     Bg         0       0       0       0       0       0
     Au         0       0       0       0       0       0
     Bu         2       2       0       0       0       0
   -------------------------------------------------------
    Total       4       4       2       2       2       0
   -------------------------------------------------------

  Starting with a DF guess...

 OEINTS: Overlap, kinetic, potential, dipole, and quadrupole integrals
         stored in file 35.

  ==> Integral Setup <==

  ==> DFJK: Density-Fitted J/K Matrices <==

    J tasked:                  Yes
    K tasked:                  Yes
    wK tasked:                  No
    OpenMP threads:              1
    Integrals threads:           1
    Memory (MB):               183
    Algorithm:                Core
    Integral Cache:           NONE
    Schwarz Cutoff:          1E-12
    Fitting Condition:       1E-12

   => Auxiliary Basis Set <=

  Basis Set: 
    Number of shells: 24
    Number of basis function: 56
    Number of Cartesian functions: 60
    Spherical Harmonics?: true
    Max angular momentum: 2

  Minimum eigenvalue in the overlap matrix is 6.1296741688E-01.
  Using Symmetric Orthogonalization.
  SCF Guess: Core (One-Electron) Hamiltonian.

  ==> Iterations <==

                           Total Energy        Delta E     RMS |[F,P]|

   @DF-RHF iter   1:    -2.00909170858736   -2.00909e+00   1.15734e-02 
   @DF-RHF iter   2:    -2.01041821473587   -1.32651e-03   5.41018e-04 DIIS
   @DF-RHF iter   3:    -2.01042111683381   -2.90210e-06   9.68414e-09 DIIS
   @DF-RHF iter   4:    -2.01042111683381   -1.77636e-15   4.26962e-11 DIIS

  DF guess converged.

  ==> Integral Setup <==

 MINTS: Wrapper to libmints.
   by Justin Turney

   Calculation information:
      Number of atoms:                   4
      Number of AO shells:               4
      Number of SO shells:               2
      Number of primitives:             12
      Number of atomic orbitals:         4
      Number of basis functions:         4

      Number of irreps:                  4
      Integral cutoff                 0.00e+00
      Number of functions per irrep: [   2    0    0    2 ]

 OEINTS: Overlap, kinetic, potential, dipole, and quadrupole integrals
         stored in file 35.

      Computing two-electron integrals...done
      Computed 31 non-zero two-electron integrals.
        Stored in file 33.

	Batch   1 pq = [       0,       6] index = [             0,21]
  ==> DiskJK: Disk-Based J/K Matrices <==

    J tasked:                  Yes
    K tasked:                  Yes
    wK tasked:                  No
    Memory (MB):               183
    Schwarz Cutoff:          1E-12

   @RHF iter   5:    -2.01021473211445    2.06385e-04   6.10521e-07 DIIS
   @RHF iter   6:    -2.01021473211813   -3.68816e-12   2.86045e-08 DIIS
   @RHF iter   7:    -2.01021473211814   -8.43769e-15   1.44897e-12 DIIS

  ==> Post-Iterations <==

    Orbital Energies (a.u.)
    -----------------------

    Doubly Occupied:                                                      

       1Ag    -0.426535     1Bu    -0.426535  

    Virtual:                                                              

       2Ag     0.344096     2Bu     0.344097  

    Final Occupation by Irrep:
             Ag    Bg    Au    Bu 
    DOCC [     1,    0,    0,    1 ]

  Energy converged.

  @RHF Final Energy:    -2.01021473211814

   => Energetics <=

    Nuclear Repulsion Energy =              1.1580339740646908
    One-Electron Energy =                  -4.6303561520733236
    Two-Electron Energy =                   1.4621074458904917
    DFT Exchange-Correlation Energy =       0.0000000000000000
    Empirical Dispersion Energy =           0.0000000000000000
    Total Energy =                         -2.0102147321181412



Properties will be evaluated at   0.000000,   0.000000,   0.000000 Bohr
  ==> Properties <==


Properties computed using the SCF density matrix

  Nuclear Dipole Moment: (a.u.)
     X:     0.0000      Y:     0.0000      Z:     0.0000

  Electronic Dipole Moment: (a.u.)
     X:     0.0000      Y:     0.0000      Z:     0.0000

  Dipole Moment: (a.u.)
     X:     0.0000      Y:     0.0000      Z:     0.0000     Total:     0.0000

  Dipole Moment: (Debye)
     X:     0.0000      Y:     0.0000      Z:     0.0000     Total:     0.0000


  Saving occupied orbitals to File 180.

*** tstop() called on Kevins-MacBook-Pro.local at Mon Jan 12 17:41:25 2015
Module time:
	user time   =       0.29 seconds =       0.00 minutes
	system time =       0.01 seconds =       0.00 minutes
	total time  =          0 seconds =       0.00 minutes
Total time:
	user time   =       0.82 seconds =       0.01 minutes
	system time =       0.03 seconds =       0.00 minutes
	total time  =          0 seconds =       0.00 minutes
Reading options from the DFMP2 block
Calling plugin dfmp2.so.

naux = 56  nbf = 4  ## C AO ACTIVE_VIR (Symmetry 0) ##
  Irrep: 1 Size: 4 x 2

                 1                   2

    1     0.63862665260063     0.63862652627223
    2    -0.63863911121447    -0.63863933683169
    3    -0.63863911121447     0.63863933683169
    4     0.63862665260063    -0.63862652627223



    Molecular point group: c2h
    Full point group: C2h

    Geometry (in Angstrom), charge = 0, multiplicity = 1:

       Center              X                  Y                   Z       
    ------------   -----------------  -----------------  -----------------
           H          2.828427124746    -3.200000000000     0.000000000000
           H          2.828427124746    -2.000000000000     0.000000000000
           H         -2.828427124746     2.000000000000     0.000000000000
           H         -2.828427124746     3.200000000000     0.000000000000


    Nuclear repulsion energy:       1.15803397

  ==> DF Tensor (by Rob Parrish) <==

 => Primary Basis Set <= 

  Basis Set: STO-3G
    Number of shells: 4
    Number of basis function: 4
    Number of Cartesian functions: 4
    Spherical Harmonics?: true
    Max angular momentum: 0

 => Auxiliary Basis Set <= 

  Basis Set: CC-PVDZ-RI
    Number of shells: 24
    Number of basis function: 56
    Number of Cartesian functions: 60
    Spherical Harmonics?: true
    Max angular momentum: 2

  ## MO ERI Tensor in Mathematica form ##
{{{1.324136668712, 0.000012504469, 0.000012504469, 1.326009911103},
{0.000012504469, 0.419234017914, 0.419234017914, -0.000011620046},
{0.000012504469, 0.419234017914, 0.419234017914, -0.000011620046},
{1.326009911103, -0.000011620046, -0.000011620046, 1.383573418527}}}
  ## AO ERI Tensor in Mathematica form ##
{{{0.774605943920, 0.226760287812, 0.000000000506, 0.000000000007, 0.226760287812, 0.417874089580, 0.000000012714, 0.000000000411, 0.000000000506, 0.000000012714, 0.068869662809, 0.025286496939, 0.000000000007, 0.000000000411, 0.025286496939, 0.061952483172},
{0.226760287812, 0.091246530373, 0.000000000217, 0.000000000003, 0.091246530373, 0.226760287812, 0.000000005475, 0.000000000177, 0.000000000217, 0.000000005475, 0.028093838084, 0.010320797297, 0.000000000003, 0.000000000177, 0.010320797297, 0.025286496939},
{0.000000000506, 0.000000000217, 0.000000000000, 0.000000000000, 0.000000000217, 0.000000000616, 0.000000000000, 0.000000000000, 0.000000000000, 0.000000000000, 0.000000000506, 0.000000000177, 0.000000000000, 0.000000000000, 0.000000000177, 0.000000000411},
{0.000000000007, 0.000000000003, 0.000000000000, 0.000000000000, 0.000000000003, 0.000000000008, 0.000000000000, 0.000000000000, 0.000000000000, 0.000000000000, 0.000000000008, 0.000000000003, 0.000000000000, 0.000000000000, 0.000000000003, 0.000000000007},
{0.226760287812, 0.091246530373, 0.000000000217, 0.000000000003, 0.091246530373, 0.226760287812, 0.000000005475, 0.000000000177, 0.000000000217, 0.000000005475, 0.028093838084, 0.010320797297, 0.000000000003, 0.000000000177, 0.010320797297, 0.025286496939},
{0.417874089580, 0.226760287812, 0.000000000616, 0.000000000008, 0.226760287812, 0.774605943920, 0.000000015676, 0.000000000506, 0.000000000616, 0.000000015676, 0.076380150957, 0.028093838084, 0.000000000008, 0.000000000506, 0.028093838084, 0.068869662809},
{0.000000012714, 0.000000005475, 0.000000000000, 0.000000000000, 0.000000005475, 0.000000015676, 0.000000000000, 0.000000000000, 0.000000000000, 0.000000000000, 0.000000015676, 0.000000005475, 0.000000000000, 0.000000000000, 0.000000005475, 0.000000012714},
{0.000000000411, 0.000000000177, 0.000000000000, 0.000000000000, 0.000000000177, 0.000000000506, 0.000000000000, 0.000000000000, 0.000000000000, 0.000000000000, 0.000000000616, 0.000000000217, 0.000000000000, 0.000000000000, 0.000000000217, 0.000000000506},
{0.000000000506, 0.000000000217, 0.000000000000, 0.000000000000, 0.000000000217, 0.000000000616, 0.000000000000, 0.000000000000, 0.000000000000, 0.000000000000, 0.000000000506, 0.000000000177, 0.000000000000, 0.000000000000, 0.000000000177, 0.000000000411},
{0.000000012714, 0.000000005475, 0.000000000000, 0.000000000000, 0.000000005475, 0.000000015676, 0.000000000000, 0.000000000000, 0.000000000000, 0.000000000000, 0.000000015676, 0.000000005475, 0.000000000000, 0.000000000000, 0.000000005475, 0.000000012714},
{0.068869662809, 0.028093838084, 0.000000000506, 0.000000000008, 0.028093838084, 0.076380150957, 0.000000015676, 0.000000000616, 0.000000000506, 0.000000015676, 0.774605943920, 0.226760287812, 0.000000000008, 0.000000000616, 0.226760287812, 0.417874089580},
{0.025286496939, 0.010320797297, 0.000000000177, 0.000000000003, 0.010320797297, 0.028093838084, 0.000000005475, 0.000000000217, 0.000000000177, 0.000000005475, 0.226760287812, 0.091246530373, 0.000000000003, 0.000000000217, 0.091246530373, 0.226760287812},
{0.000000000007, 0.000000000003, 0.000000000000, 0.000000000000, 0.000000000003, 0.000000000008, 0.000000000000, 0.000000000000, 0.000000000000, 0.000000000000, 0.000000000008, 0.000000000003, 0.000000000000, 0.000000000000, 0.000000000003, 0.000000000007},
{0.000000000411, 0.000000000177, 0.000000000000, 0.000000000000, 0.000000000177, 0.000000000506, 0.000000000000, 0.000000000000, 0.000000000000, 0.000000000000, 0.000000000616, 0.000000000217, 0.000000000000, 0.000000000000, 0.000000000217, 0.000000000506},
{0.025286496939, 0.010320797297, 0.000000000177, 0.000000000003, 0.010320797297, 0.028093838084, 0.000000005475, 0.000000000217, 0.000000000177, 0.000000005475, 0.226760287812, 0.091246530373, 0.000000000003, 0.000000000217, 0.091246530373, 0.226760287812},
{0.061952483172, 0.025286496939, 0.000000000411, 0.000000000007, 0.025286496939, 0.068869662809, 0.000000012714, 0.000000000506, 0.000000000411, 0.000000012714, 0.417874089580, 0.226760287812, 0.000000000007, 0.000000000506, 0.226760287812, 0.774605943920}}}
  ## Amn (Symmetry 0) ##
  Irrep: 1 Size: 56 x 16

                 1                   2                   3                   4                   5

    1     1.23563140966507     0.31284022447446     0.00000000059081     0.00000000000799     0.31284022447446
    2     2.90901162404834     0.84668889772219     0.00000000181808     0.00000000002460     0.84668889772219
    3     5.25265557052604     1.77259612829007     0.00000000506357     0.00000000006852     1.77259612829007
    4     0.00000000000000     0.00000000000000     0.00000000000000     0.00000000000000     0.00000000000000
    5     0.00000000000000     0.00000000000000    -0.00000000009048    -0.00000000000099     0.00000000000000
    6     0.00000000000000     0.12106767061766     0.00000000008317     0.00000000000112     0.12106767061766
    7     0.00000000000000     0.00000000000000     0.00000000000000     0.00000000000000     0.00000000000000
    8    -0.00000000000000    -0.00000000000000    -0.00000000020733    -0.00000000000227    -0.00000000000000
    9     0.00000000000001     0.21495909047676     0.00000000019059     0.00000000000257     0.21495909047676
   10     0.00000000000000    -0.03084814872842    -0.00000000002502    -0.00000000000027    -0.03084814872842
   11     0.00000000000000     0.00000000000000     0.00000000000000     0.00000000000000     0.00000000000000
   12     0.00000000000000     0.00000000000000     0.00000000000000     0.00000000000000     0.00000000000000
   13     0.00000000000000    -0.05343056091706     0.00000000000364    -0.00000000000006    -0.05343056091706
   14    -0.00000000000000     0.00000000000000    -0.00000000004318    -0.00000000000047     0.00000000000000
   15     0.50562067153907     0.31284022447446     0.00000000071922     0.00000000000986     0.31284022447446
   16     1.52899922549855     0.84668889772219     0.00000000221321     0.00000000003033     0.84668889772219
   17     3.79770275401247     1.77259612829007     0.00000000615917     0.00000000008445     1.77259612829007
   18     0.00000000000000     0.00000000000000     0.00000000000000     0.00000000000000     0.00000000000000
   19     0.00000000000000     0.00000000000000    -0.00000000016321    -0.00000000000186     0.00000000000000
   20    -0.29541431164137    -0.12106767061766     0.00000000008076     0.00000000000131    -0.12106767061766
   21     0.00000000000000     0.00000000000000     0.00000000000000     0.00000000000000     0.00000000000000
   22    -0.00000000000000    -0.00000000000000    -0.00000000037387    -0.00000000000425    -0.00000000000000
   23    -0.62101589918684    -0.21495909047676     0.00000000018501     0.00000000000301    -0.21495909047676
   24    -0.13449937984830    -0.03084814872842    -0.00000000004503    -0.00000000000051    -0.03084814872842
   25     0.00000000000000     0.00000000000000     0.00000000000000     0.00000000000000     0.00000000000000
   26     0.00000000000000     0.00000000000000     0.00000000000000     0.00000000000000     0.00000000000000
   27    -0.23295975948376    -0.05343056091706     0.00000000004731     0.00000000000030    -0.05343056091706
   28    -0.00000000000000    -0.00000000000000    -0.00000000006199    -0.00000000000084    -0.00000000000000
   29     0.08034743002683     0.03277593642224     0.00000000059081     0.00000000000986     0.03277593642224
   30     0.24725101290918     0.10086051883352     0.00000000181808     0.00000000003033     0.10086051883352
   31     0.68865783936073     0.28092255784696     0.00000000506357     0.00000000008445     0.28092255784696
   32     0.00000000000000     0.00000000000000     0.00000000000000     0.00000000000000     0.00000000000000
   33     0.00615165333174     0.00279208347995     0.00000000009048     0.00000000000186     0.00279208347995
   34    -0.00565483852230    -0.00226147557763    -0.00000000008317    -0.00000000000131    -0.00226147557763
   35     0.00000000000000     0.00000000000000     0.00000000000000     0.00000000000000     0.00000000000000
   36     0.01409696486797     0.00639826410928     0.00000000020733     0.00000000000425     0.00639826410928
   37    -0.01295847728798    -0.00518233717805    -0.00000000019059    -0.00000000000301    -0.00518233717805
   38    -0.00085029956327    -0.00038592996640    -0.00000000002502    -0.00000000000051    -0.00038592996640
   39     0.00000000000000     0.00000000000000     0.00000000000000     0.00000000000000     0.00000000000000
   40     0.00000000000000     0.00000000000000     0.00000000000000     0.00000000000000     0.00000000000000
   41     0.00012372797670     0.00013946066136     0.00000000000364     0.00000000000030     0.00013946066136
   42    -0.00146755559679    -0.00065265130985    -0.00000000004318    -0.00000000000084    -0.00065265130985
   43     0.07227743833230     0.02950072587165     0.00000000047915     0.00000000000799     0.02950072587165
   44     0.22241744175482     0.09078180037478     0.00000000147448     0.00000000002460     0.09078180037478
   45     0.61948993887957     0.25285072754114     0.00000000410681     0.00000000006852     0.25285072754114
   46     0.00000000000000     0.00000000000000     0.00000000000000     0.00000000000000     0.00000000000000
   47     0.00447800050929     0.00203606506316     0.00000000004826     0.00000000000099     0.00203606506316
   48    -0.00506627924204    -0.00208089992231    -0.00000000006484    -0.00000000000112    -0.00208089992231
   49     0.00000000000000     0.00000000000000     0.00000000000000     0.00000000000000     0.00000000000000
   50     0.01026166665349     0.00466579244903     0.00000000011059     0.00000000000227     0.00466579244903
   51    -0.01160975052314    -0.00476853481766    -0.00000000014859    -0.00000000000257    -0.00476853481766
   52    -0.00061896236216    -0.00028143088380    -0.00000000001334    -0.00000000000027    -0.00028143088380
   53     0.00000000000000     0.00000000000000     0.00000000000000     0.00000000000000     0.00000000000000
   54     0.00000000000000     0.00000000000000     0.00000000000000     0.00000000000000     0.00000000000000
   55    -0.00013165824236    -0.00001008414594    -0.00000000000663    -0.00000000000006    -0.00001008414594
   56    -0.00106395926826    -0.00048683805209    -0.00000000002214    -0.00000000000047    -0.00048683805209

                 6                   7                   8                   9                  10

    1     0.50562067153907     0.00000001483316     0.00000000047915     0.00000000059081     0.00000001483316
    2     1.52899922549855     0.00000004564569     0.00000000147448     0.00000000181808     0.00000004564569
    3     3.79770275401247     0.00000012713406     0.00000000410681     0.00000000506357     0.00000012713406
    4     0.00000000000000     0.00000000000000     0.00000000000000     0.00000000000000     0.00000000000000
    5     0.00000000000000    -0.00000000183820    -0.00000000004826    -0.00000000009048    -0.00000000183820
    6     0.29541431164137     0.00000000208022     0.00000000006484     0.00000000008317     0.00000000208022
    7     0.00000000000000     0.00000000000000     0.00000000000000     0.00000000000000     0.00000000000000
    8    -0.00000000000000    -0.00000000421236    -0.00000000011059    -0.00000000020733    -0.00000000421236
    9     0.62101589918685     0.00000000476698     0.00000000014859     0.00000000019059     0.00000000476698
   10    -0.13449937984830    -0.00000000050851    -0.00000000001334    -0.00000000002502    -0.00000000050851
   11     0.00000000000000     0.00000000000000     0.00000000000000     0.00000000000000     0.00000000000000
   12     0.00000000000000     0.00000000000000     0.00000000000000     0.00000000000000     0.00000000000000
   13    -0.23295975948376    -0.00000000010857    -0.00000000000663     0.00000000000364    -0.00000000010857
   14     0.00000000000000    -0.00000000087397    -0.00000000002214    -0.00000000004318    -0.00000000087397
   15     1.23563140966507     0.00000001828957     0.00000000059081     0.00000000071922     0.00000001828957
   16     2.90901162404834     0.00000005628171     0.00000000181808     0.00000000221321     0.00000005628171
   17     5.25265557052604     0.00000015671522     0.00000000506357     0.00000000615917     0.00000015671522
   18     0.00000000000000     0.00000000000000     0.00000000000000     0.00000000000000     0.00000000000000
   19     0.00000000000000    -0.00000000344679    -0.00000000009048    -0.00000000016321    -0.00000000344679
   20    -0.00000000000000     0.00000000243725     0.00000000008317     0.00000000008076     0.00000000243725
   21     0.00000000000000     0.00000000000000     0.00000000000000     0.00000000000000     0.00000000000000
   22    -0.00000000000000    -0.00000000789764    -0.00000000020733    -0.00000000037387    -0.00000000789764
   23     0.00000000000000     0.00000000558447     0.00000000019059     0.00000000018501     0.00000000558447
   24     0.00000000000000    -0.00000000095349    -0.00000000002502    -0.00000000004503    -0.00000000095349
   25     0.00000000000000     0.00000000000000     0.00000000000000     0.00000000000000     0.00000000000000
   26     0.00000000000000     0.00000000000000     0.00000000000000     0.00000000000000     0.00000000000000
   27     0.00000000000000     0.00000000055050     0.00000000000364     0.00000000004731     0.00000000055050
   28    -0.00000000000000    -0.00000000155705    -0.00000000004318    -0.00000000006199    -0.00000000155705
   29     0.08910961059087     0.00000001828957     0.00000000071922     0.00000000059081     0.00000001828957
   30     0.27421463849159     0.00000005628171     0.00000000221321     0.00000000181808     0.00000005628171
   31     0.76375849078549     0.00000015671522     0.00000000615917     0.00000000506357     0.00000015671522
   32     0.00000000000000     0.00000000000000     0.00000000000000     0.00000000000000     0.00000000000000
   33     0.00839169170961     0.00000000344679     0.00000000016321     0.00000000009048     0.00000000344679
   34    -0.00593382211349    -0.00000000243725    -0.00000000008076    -0.00000000008317    -0.00000000243725
   35     0.00000000000000     0.00000000000000     0.00000000000000     0.00000000000000     0.00000000000000
   36     0.01923017713023     0.00000000789764     0.00000000037387     0.00000000020733     0.00000000789764
   37    -0.01359778865220    -0.00000000558447    -0.00000000018501    -0.00000000019059    -0.00000000558447
   38    -0.00115992423678    -0.00000000095349    -0.00000000004503    -0.00000000002502    -0.00000000095349
   39     0.00000000000000     0.00000000000000     0.00000000000000     0.00000000000000     0.00000000000000
   40     0.00000000000000     0.00000000000000     0.00000000000000     0.00000000000000     0.00000000000000
   41     0.00066968257035     0.00000000055050     0.00000000004731     0.00000000000364     0.00000000055050
   42    -0.00189414834694    -0.00000000155705    -0.00000000006199    -0.00000000004318    -0.00000000155705
   43     0.08034743002683     0.00000001483316     0.00000000059081     0.00000000047915     0.00000001483316
   44     0.24725101290918     0.00000004564569     0.00000000181808     0.00000000147448     0.00000004564569
   45     0.68865783936073     0.00000012713406     0.00000000506357     0.00000000410681     0.00000012713406
   46     0.00000000000000     0.00000000000000     0.00000000000000     0.00000000000000     0.00000000000000
   47     0.00615165333174     0.00000000183820     0.00000000009048     0.00000000004826     0.00000000183820
   48    -0.00565483852230    -0.00000000208022    -0.00000000008317    -0.00000000006484    -0.00000000208022
   49     0.00000000000000     0.00000000000000     0.00000000000000     0.00000000000000     0.00000000000000
   50     0.01409696486797     0.00000000421236     0.00000000020733     0.00000000011059     0.00000000421236
   51    -0.01295847728798    -0.00000000476698    -0.00000000019059    -0.00000000014859    -0.00000000476698
   52    -0.00085029956327    -0.00000000050851    -0.00000000002502    -0.00000000001334    -0.00000000050851
   53     0.00000000000000     0.00000000000000     0.00000000000000     0.00000000000000     0.00000000000000
   54     0.00000000000000     0.00000000000000     0.00000000000000     0.00000000000000     0.00000000000000
   55     0.00012372797670    -0.00000000010857     0.00000000000364    -0.00000000000663    -0.00000000010857
   56    -0.00146755559679    -0.00000000087397    -0.00000000004318    -0.00000000002214    -0.00000000087397

                11                  12                  13                  14                  15

    1     0.08034743002683     0.02950072587165     0.00000000000799     0.00000000047915     0.02950072587165
    2     0.24725101290918     0.09078180037478     0.00000000002460     0.00000000147448     0.09078180037478
    3     0.68865783936073     0.25285072754114     0.00000000006852     0.00000000410681     0.25285072754114
    4     0.00000000000000     0.00000000000000     0.00000000000000     0.00000000000000     0.00000000000000
    5    -0.00615165333174    -0.00203606506316    -0.00000000000099    -0.00000000004826    -0.00203606506316
    6     0.00565483852230     0.00208089992231     0.00000000000112     0.00000000006484     0.00208089992231
    7     0.00000000000000     0.00000000000000     0.00000000000000     0.00000000000000     0.00000000000000
    8    -0.01409696486797    -0.00466579244903    -0.00000000000227    -0.00000000011059    -0.00466579244903
    9     0.01295847728798     0.00476853481766     0.00000000000257     0.00000000014859     0.00476853481766
   10    -0.00085029956327    -0.00028143088380    -0.00000000000027    -0.00000000001334    -0.00028143088380
   11     0.00000000000000     0.00000000000000     0.00000000000000     0.00000000000000     0.00000000000000
   12     0.00000000000000     0.00000000000000     0.00000000000000     0.00000000000000     0.00000000000000
   13     0.00012372797670    -0.00001008414594    -0.00000000000006    -0.00000000000663    -0.00001008414594
   14    -0.00146755559679    -0.00048683805209    -0.00000000000047    -0.00000000002214    -0.00048683805209
   15     0.08910961059087     0.03277593642224     0.00000000000986     0.00000000059081     0.03277593642224
   16     0.27421463849159     0.10086051883352     0.00000000003033     0.00000000181808     0.10086051883352
   17     0.76375849078549     0.28092255784696     0.00000000008445     0.00000000506357     0.28092255784696
   18     0.00000000000000     0.00000000000000     0.00000000000000     0.00000000000000     0.00000000000000
   19    -0.00839169170961    -0.00279208347995    -0.00000000000186    -0.00000000009048    -0.00279208347995
   20     0.00593382211349     0.00226147557763     0.00000000000131     0.00000000008317     0.00226147557763
   21     0.00000000000000     0.00000000000000     0.00000000000000     0.00000000000000     0.00000000000000
   22    -0.01923017713023    -0.00639826410928    -0.00000000000425    -0.00000000020733    -0.00639826410928
   23     0.01359778865220     0.00518233717805     0.00000000000301     0.00000000019059     0.00518233717805
   24    -0.00115992423678    -0.00038592996640    -0.00000000000051    -0.00000000002502    -0.00038592996640
   25     0.00000000000000     0.00000000000000     0.00000000000000     0.00000000000000     0.00000000000000
   26     0.00000000000000     0.00000000000000     0.00000000000000     0.00000000000000     0.00000000000000
   27     0.00066968257035     0.00013946066136     0.00000000000030     0.00000000000364     0.00013946066136
   28    -0.00189414834694    -0.00065265130985    -0.00000000000084    -0.00000000004318    -0.00065265130985
   29     1.23563140966507     0.31284022447446     0.00000000000986     0.00000000071922     0.31284022447446
   30     2.90901162404834     0.84668889772219     0.00000000003033     0.00000000221321     0.84668889772219
   31     5.25265557052604     1.77259612829007     0.00000000008445     0.00000000615917     1.77259612829007
   32     0.00000000000000     0.00000000000000     0.00000000000000     0.00000000000000     0.00000000000000
   33    -0.00000000000000    -0.00000000000000     0.00000000000186     0.00000000016321    -0.00000000000000
   34     0.00000000000000     0.12106767061766    -0.00000000000131    -0.00000000008076     0.12106767061766
   35     0.00000000000000     0.00000000000000     0.00000000000000     0.00000000000000     0.00000000000000
   36     0.00000000000000     0.00000000000000     0.00000000000425     0.00000000037387     0.00000000000000
   37    -0.00000000000000     0.21495909047676    -0.00000000000301    -0.00000000018501     0.21495909047676
   38     0.00000000000000    -0.03084814872842    -0.00000000000051    -0.00000000004503    -0.03084814872842
   39     0.00000000000000     0.00000000000000     0.00000000000000     0.00000000000000     0.00000000000000
   40     0.00000000000000     0.00000000000000     0.00000000000000     0.00000000000000     0.00000000000000
   41     0.00000000000000    -0.05343056091706     0.00000000000030     0.00000000004731    -0.05343056091706
   42    -0.00000000000000    -0.00000000000000    -0.00000000000084    -0.00000000006199    -0.00000000000000
   43     0.50562067153907     0.31284022447446     0.00000000000799     0.00000000059081     0.31284022447446
   44     1.52899922549855     0.84668889772219     0.00000000002460     0.00000000181808     0.84668889772219
   45     3.79770275401247     1.77259612829007     0.00000000006852     0.00000000506357     1.77259612829007
   46     0.00000000000000     0.00000000000000     0.00000000000000     0.00000000000000     0.00000000000000
   47    -0.00000000000000    -0.00000000000000     0.00000000000099     0.00000000009048    -0.00000000000000
   48    -0.29541431164137    -0.12106767061766    -0.00000000000112    -0.00000000008317    -0.12106767061766
   49     0.00000000000000     0.00000000000000     0.00000000000000     0.00000000000000     0.00000000000000
   50     0.00000000000000     0.00000000000000     0.00000000000227     0.00000000020733     0.00000000000000
   51    -0.62101589918685    -0.21495909047676    -0.00000000000257    -0.00000000019059    -0.21495909047676
   52    -0.13449937984830    -0.03084814872842    -0.00000000000027    -0.00000000002502    -0.03084814872842
   53     0.00000000000000     0.00000000000000     0.00000000000000     0.00000000000000     0.00000000000000
   54     0.00000000000000     0.00000000000000     0.00000000000000     0.00000000000000     0.00000000000000
   55    -0.23295975948376    -0.05343056091706    -0.00000000000006     0.00000000000364    -0.05343056091706
   56     0.00000000000000     0.00000000000000    -0.00000000000047    -0.00000000004318     0.00000000000000

                16

    1     0.07227743833230
    2     0.22241744175482
    3     0.61948993887957
    4     0.00000000000000
    5    -0.00447800050929
    6     0.00506627924204
    7     0.00000000000000
    8    -0.01026166665349
    9     0.01160975052314
   10    -0.00061896236216
   11     0.00000000000000
   12     0.00000000000000
   13    -0.00013165824236
   14    -0.00106395926826
   15     0.08034743002683
   16     0.24725101290918
   17     0.68865783936073
   18     0.00000000000000
   19    -0.00615165333174
   20     0.00565483852230
   21     0.00000000000000
   22    -0.01409696486797
   23     0.01295847728798
   24    -0.00085029956327
   25     0.00000000000000
   26     0.00000000000000
   27     0.00012372797670
   28    -0.00146755559679
   29     0.50562067153907
   30     1.52899922549855
   31     3.79770275401247
   32     0.00000000000000
   33    -0.00000000000000
   34     0.29541431164137
   35     0.00000000000000
   36     0.00000000000000
   37     0.62101589918684
   38    -0.13449937984830
   39     0.00000000000000
   40     0.00000000000000
   41    -0.23295975948376
   42    -0.00000000000000
   43     1.23563140966507
   44     2.90901162404834
   45     5.25265557052604
   46     0.00000000000000
   47    -0.00000000000000
   48    -0.00000000000000
   49     0.00000000000000
   50     0.00000000000000
   51    -0.00000000000001
   52     0.00000000000000
   53     0.00000000000000
   54     0.00000000000000
   55     0.00000000000000
   56    -0.00000000000000



  ## Ami (Symmetry 0) ##
  Irrep: 1 Size: 56 x 8

                 1                   2                   3                   4                   5

    1     0.65740902191190     0.65740922620092     0.34747402740870     0.34747399084616     0.04663532944592
    2     1.59449407490763     1.59449453600661     1.00858694664445     1.00858681447334     0.14350966096871
    3     2.98258841616622     2.98258920410527     2.36483956131641     2.36483915141669     0.39971141831592
    4     0.00000000000000     0.00000000000000     0.00000000000000     0.00000000000000     0.00000000000000
    5    -0.00000000003883     0.00000000003883    -0.00000000080087     0.00000000080088    -0.00347604055341
    6     0.05139788356503     0.05139786208241     0.17681490156062     0.17681487298174     0.00328415862038
    7     0.00000000000000     0.00000000000000     0.00000000000000     0.00000000000000     0.00000000000000
    8    -0.00000000008899     0.00000000008898    -0.00000000183526     0.00000000183526    -0.00796560191520
    9     0.09125840325034     0.09125836507040     0.35490758815003     0.35490751940143     0.00752589039005
   10    -0.01309622584334    -0.01309622036631    -0.07019696717443    -0.07019694943898    -0.00048046863213
   11     0.00000000000000     0.00000000000000     0.00000000000000     0.00000000000000     0.00000000000000
   12     0.00000000000000     0.00000000000000     0.00000000000000     0.00000000000000     0.00000000000000
   13    -0.02268332852795    -0.02268331908169    -0.12158471334854    -0.12158468329948     0.00004824594367
   14    -0.00000000001853     0.00000000001853    -0.00000000038043     0.00000000038043    -0.00082972483532
   15     0.34747764782115     0.34747769831844     0.65739167004003     0.65739150134409     0.05174572817593
   16     1.00859976327755     1.00859993351738     1.59445530218512     1.59445491663358     0.15923575528100
   17     2.36487760474333     2.36487808544341     2.98252301546881     2.98252232232877     0.44351264686595
   18     0.00000000000000     0.00000000000000     0.00000000000000     0.00000000000000     0.00000000000000
   19    -0.00000000007007     0.00000000007008    -0.00000000150170     0.00000000150171    -0.00474799685411
   20    -0.17681818044025    -0.17681822128920    -0.05140015999545    -0.05140018762252     0.00347926274686
   21     0.00000000000000     0.00000000000000     0.00000000000000     0.00000000000000     0.00000000000000
   22    -0.00000000016053     0.00000000016053    -0.00000000344088     0.00000000344087    -0.01088038308296
   23    -0.35491522476160    -0.35491531764094    -0.09126244454688    -0.09126249470333     0.00797298580756
   24    -0.07019891686876    -0.07019893968921    -0.01309680656625    -0.01309681222954    -0.00065628226078
   25     0.00000000000000     0.00000000000000     0.00000000000000     0.00000000000000     0.00000000000000
   26     0.00000000000000     0.00000000000000     0.00000000000000     0.00000000000000     0.00000000000000
   27    -0.12158809059931    -0.12158813023288    -0.02268433343486    -0.02268434515352     0.00034351530613
   28    -0.00000000002667     0.00000000002667    -0.00000000067936     0.00000000067936    -0.00108122739222
   29     0.04802673255855     0.04802674316670     0.05174572817593     0.05174570317672     0.65739167004003
   30     0.14779138882044     0.14779142146465     0.15923575528100     0.15923567835190     1.59445530218512
   31     0.41163713468209     0.41163722560486     0.44351264686595     0.44351243264021     2.98252301546881
   32     0.00000000000000     0.00000000000000     0.00000000000000     0.00000000000000     0.00000000000000
   33     0.00379707609783     0.00379707682069     0.00474799685411     0.00474799289265     0.00000000150170
   34    -0.00336088628331    -0.00336088700208    -0.00347926274686    -0.00347926003555     0.05140015999545
   35     0.00000000000000     0.00000000000000     0.00000000000000     0.00000000000000     0.00000000000000
   36     0.00870127841501     0.00870128007149     0.01088038308296     0.01088037400586     0.00000000344088
   37    -0.00770171745806    -0.00770171910518    -0.00797298580756    -0.00797297959500     0.09126244454688
   38    -0.00052484299861    -0.00052484308768    -0.00065628226078    -0.00065628128906    -0.01309680656625
   39     0.00000000000000     0.00000000000000     0.00000000000000     0.00000000000000     0.00000000000000
   40     0.00000000000000     0.00000000000000     0.00000000000000     0.00000000000000     0.00000000000000
   41     0.00011173603071     0.00011173602875     0.00034351530613     0.00034351470947    -0.02268433343486
   42    -0.00090013702058    -0.00090013717674    -0.00108122739222    -0.00108122581994    -0.00000000067936
   43     0.04321010590530     0.04321011549019     0.04663532944592     0.04663530835063     0.34747402740870
   44     0.13296931151912     0.13296934101443     0.14350966096871     0.14350959605272     1.00858694664445
   45     0.37035382664206     0.37035390879413     0.39971141831592     0.39971123750919     2.36483956131641
   46     0.00000000000000     0.00000000000000     0.00000000000000     0.00000000000000     0.00000000000000
   47     0.00276555568655     0.00276555622736     0.00347604055341     0.00347603825651     0.00000000080087
   48    -0.00303434783541    -0.00303434847794    -0.00328415862038    -0.00328415622149    -0.17681490156062
   49     0.00000000000000     0.00000000000000     0.00000000000000     0.00000000000000     0.00000000000000
   50     0.00633747372476     0.00633747496405     0.00796560191520     0.00796559665170     0.00000000183526
   51    -0.00695343065128    -0.00695343212368    -0.00752589039005    -0.00752588489282    -0.35490758815003
   52    -0.00038226321989    -0.00038226328886    -0.00048046863213    -0.00048046808799    -0.07019696717443
   53     0.00000000000000     0.00000000000000     0.00000000000000     0.00000000000000     0.00000000000000
   54     0.00000000000000     0.00000000000000     0.00000000000000     0.00000000000000     0.00000000000000
   55    -0.00006017757613    -0.00006017759638     0.00004824594367     0.00004824600876    -0.12158471334854
   56    -0.00065839314501    -0.00065839326370    -0.00082972483532    -0.00082972389955    -0.00000000038043

                 6                   7                   8

    1    -0.04663530835063     0.04321010590530    -0.04321011549019
    2    -0.14350959605272     0.13296931151912    -0.13296934101443
    3    -0.39971123750919     0.37035382664206    -0.37035390879413
    4     0.00000000000000     0.00000000000000     0.00000000000000
    5     0.00347603825651    -0.00276555568655     0.00276555622736
    6    -0.00328415622149     0.00303434783541    -0.00303434847794
    7     0.00000000000000     0.00000000000000     0.00000000000000
    8     0.00796559665170    -0.00633747372476     0.00633747496405
    9    -0.00752588489282     0.00695343065128    -0.00695343212368
   10     0.00048046808799    -0.00038226321989     0.00038226328886
   11     0.00000000000000     0.00000000000000     0.00000000000000
   12     0.00000000000000     0.00000000000000     0.00000000000000
   13    -0.00004824600876    -0.00006017757613     0.00006017759638
   14     0.00082972389955    -0.00065839314501     0.00065839326370
   15    -0.05174570317672     0.04802673255855    -0.04802674316670
   16    -0.15923567835190     0.14779138882044    -0.14779142146465
   17    -0.44351243264021     0.41163713468209    -0.41163722560486
   18     0.00000000000000     0.00000000000000     0.00000000000000
   19     0.00474799289265    -0.00379707609783     0.00379707682069
   20    -0.00347926003555     0.00336088628331    -0.00336088700208
   21     0.00000000000000     0.00000000000000     0.00000000000000
   22     0.01088037400586    -0.00870127841501     0.00870128007149
   23    -0.00797297959500     0.00770171745806    -0.00770171910518
   24     0.00065628128906    -0.00052484299861     0.00052484308768
   25     0.00000000000000     0.00000000000000     0.00000000000000
   26     0.00000000000000     0.00000000000000     0.00000000000000
   27    -0.00034351470947     0.00011173603071    -0.00011173602875
   28     0.00108122581994    -0.00090013702058     0.00090013717674
   29    -0.65739150134409     0.34747764782114    -0.34747769831844
   30    -1.59445491663358     1.00859976327755    -1.00859993351738
   31    -2.98252232232877     2.36487760474333    -2.36487808544341
   32     0.00000000000000     0.00000000000000     0.00000000000000
   33     0.00000000150171     0.00000000007007     0.00000000007008
   34    -0.05140018762252     0.17681818044025    -0.17681822128920
   35     0.00000000000000     0.00000000000000     0.00000000000000
   36     0.00000000344087     0.00000000016053     0.00000000016053
   37    -0.09126249470333     0.35491522476160    -0.35491531764094
   38     0.01309681222954    -0.07019891686876     0.07019893968921
   39     0.00000000000000     0.00000000000000     0.00000000000000
   40     0.00000000000000     0.00000000000000     0.00000000000000
   41     0.02268434515352    -0.12158809059931     0.12158813023288
   42    -0.00000000067936    -0.00000000002667    -0.00000000002667
   43    -0.34747399084616     0.65740902191190    -0.65740922620092
   44    -1.00858681447334     1.59449407490763    -1.59449453600661
   45    -2.36483915141669     2.98258841616622    -2.98258920410527
   46     0.00000000000000     0.00000000000000     0.00000000000000
   47     0.00000000080088     0.00000000003883     0.00000000003883
   48     0.17681487298174    -0.05139788356503     0.05139786208241
   49     0.00000000000000     0.00000000000000     0.00000000000000
   50     0.00000000183526     0.00000000008899     0.00000000008898
   51     0.35490751940143    -0.09125840325034     0.09125836507040
   52     0.07019694943898    -0.01309622584334     0.01309622036631
   53     0.00000000000000     0.00000000000000     0.00000000000000
   54     0.00000000000000     0.00000000000000     0.00000000000000
   55     0.12158468329948    -0.02268332852794     0.02268331908169
   56    -0.00000000038043    -0.00000000001853    -0.00000000001853



  ## Aia (Symmetry 0) ##
  Irrep: 1 Size: 56 x 4

                 1                   2                   3                   4

    1     0.19574039896292     0.20011629360921     0.20011657329560     0.19574039494509
    2     0.36743020644458     0.38089609867154     0.38089679706530     0.36743016745818
    3     0.37572790034840     0.41323416768086     0.41323553808913     0.37572778595794
    4     0.00000000000000     0.00000000000000     0.00000000000000     0.00000000000000
    5     0.00045377836556    -0.00045377852584    -0.00045377655330     0.00045377671358
    6    -0.08025642999171    -0.07993732177002    -0.07993727391895    -0.08025647102691
    7     0.00000000000000     0.00000000000000     0.00000000000000     0.00000000000000
    8     0.00103986641187    -0.00103986677916    -0.00103986225894     0.00103986262624
    9    -0.16874349987885    -0.16801222528649    -0.16801212118933    -0.16874357008312
   10     0.03652965243385     0.03640422460992     0.03640419983732     0.03652966186228
   11     0.00000000000000     0.00000000000000     0.00000000000000     0.00000000000000
   12     0.00000000000000     0.00000000000000     0.00000000000000     0.00000000000000
   13     0.06309333235194     0.06323184815356     0.06323180474976     0.06309334943344
   14     0.00010942755222    -0.00010942736034    -0.00010942687880     0.00010942668692
   15    -0.20030323919481    -0.19555202486369    -0.19555173314577    -0.20030328642695
   16    -0.38147348772361    -0.36685259767713    -0.36685188015176    -0.38147360454608
   17    -0.41484405644700    -0.37412072164376    -0.37411934727399    -0.41484423563928
   18     0.00000000000000     0.00000000000000     0.00000000000000     0.00000000000000
   19     0.00060734340723    -0.00060734312954    -0.00060734041565     0.00060734013796
   20    -0.08017029190917    -0.08001897334279    -0.08001901912034    -0.08017026543772
   21     0.00000000000000     0.00000000000000     0.00000000000000     0.00000000000000
   22     0.00139177196921    -0.00139177133331    -0.00139176511435     0.00139176447844
   23    -0.16854789400417    -0.16820114874543    -0.16820124924630    -0.16854785361356
   24    -0.03638281759849    -0.03655070357465    -0.03655072546275    -0.03638281719554
   25     0.00000000000000     0.00000000000000     0.00000000000000     0.00000000000000
   26     0.00000000000000     0.00000000000000     0.00000000000000     0.00000000000000
   27    -0.06331031745473    -0.06301424748005    -0.06301428625654    -0.06331031451560
   28     0.00011566302528    -0.00011566254928    -0.00011566192144     0.00011566144543
   29    -0.20030323919481     0.19555202486369     0.19555173314577    -0.20030328642695
   30    -0.38147348772361     0.36685259767713     0.36685188015176    -0.38147360454608
   31    -0.41484405644700     0.37412072164376     0.37411934727399    -0.41484423563928
   32     0.00000000000000     0.00000000000000     0.00000000000000     0.00000000000000
   33    -0.00060734340723    -0.00060734312954    -0.00060734041565    -0.00060734013796
   34     0.08017029190917    -0.08001897334279    -0.08001901912034     0.08017026543772
   35     0.00000000000000     0.00000000000000     0.00000000000000     0.00000000000000
   36    -0.00139177196921    -0.00139177133331    -0.00139176511435    -0.00139176447844
   37     0.16854789400417    -0.16820114874543    -0.16820124924630     0.16854785361356
   38    -0.03638281759849     0.03655070357465     0.03655072546275    -0.03638281719554
   39     0.00000000000000     0.00000000000000     0.00000000000000     0.00000000000000
   40     0.00000000000000     0.00000000000000     0.00000000000000     0.00000000000000
   41    -0.06331031745473     0.06301424748005     0.06301428625654    -0.06331031451560
   42     0.00011566302528     0.00011566254928     0.00011566192144     0.00011566144543
   43     0.19574039896292    -0.20011629360921    -0.20011657329560     0.19574039494509
   44     0.36743020644458    -0.38089609867154    -0.38089679706530     0.36743016745818
   45     0.37572790034840    -0.41323416768086    -0.41323553808913     0.37572778595794
   46     0.00000000000000     0.00000000000000     0.00000000000000     0.00000000000000
   47    -0.00045377836556    -0.00045377852584    -0.00045377655330    -0.00045377671358
   48     0.08025642999171    -0.07993732177002    -0.07993727391895     0.08025647102691
   49     0.00000000000000     0.00000000000000     0.00000000000000     0.00000000000000
   50    -0.00103986641187    -0.00103986677916    -0.00103986225894    -0.00103986262624
   51     0.16874349987885    -0.16801222528649    -0.16801212118933     0.16874357008312
   52     0.03652965243385    -0.03640422460992    -0.03640419983732     0.03652966186228
   53     0.00000000000000     0.00000000000000     0.00000000000000     0.00000000000000
   54     0.00000000000000     0.00000000000000     0.00000000000000     0.00000000000000
   55     0.06309333235194    -0.06323184815356    -0.06323180474976     0.06309334943344
   56     0.00010942755222     0.00010942736034     0.00010942687880     0.00010942668692



