
Host: Kevins-MacBook-Pro.local

Timers On : Wed Nov 26 17:01:17 2014
Timers Off: Wed Nov 26 17:01:18 2014

Wall Time:        1.00 seconds

JK: (A|mn)  :       0.00u       0.00s       0.00w      1 call
JK: (A|Q)^-1/2:       0.05u       0.00s       0.00w      1 call
JK: (Q|mn)  :       0.00u       0.00s       0.00w      1 call
Form H      :       0.00u       0.00s       0.00w      1 call
Form S/X    :       0.00u       0.00s       0.00w      1 call
Guess       :       0.00u       0.00s       0.00w      1 call
Form G      :       0.02u       0.00s       0.00w      9 calls
JK: D       :       0.00u       0.00s       0.00w      9 calls
JK: USO2AO  :       0.00u       0.00s       0.00w      6 calls
JK: JK      :       0.00u       0.00s       0.00w      9 calls
JK: J       :       0.00u       0.00s       0.00w      6 calls
JK: J1      :       0.00u       0.00s       0.00w      6 calls
JK: J2      :       0.00u       0.00s       0.00w      6 calls
JK: K       :       0.00u       0.00s       0.00w      6 calls
JK: K1      :       0.00u       0.00s       0.00w      6 calls
JK: K2      :       0.00u       0.00s       0.00w      6 calls
JK: AO2USO  :       0.00u       0.00s       0.00w      6 calls
Form F      :       0.00u       0.00s       0.00w      9 calls
DIIS        :       0.02u       0.00s       0.00w      9 calls
DIISManager::add_entry:       0.00u       0.00s       0.00w      9 calls
Form C      :       0.00u       0.00s       0.00w      9 calls
Form D      :       0.00u       0.00s       0.00w      9 calls
DIISManager::extrapolate:       0.00u       0.00s       0.00w      8 calls
DIISManager::extrapolate: bMatrix setup:       0.00u       0.00s       0.00w      8 calls
DIISManager::extrapolate: bMatrix pseudoinverse:       0.00u       0.00s       0.00w      8 calls
DIISManager::extrapolate: form new data:       0.00u       0.00s       0.00w      8 calls

***********************************************************

Host: Kevins-MacBook-Pro.local

Timers On : Wed Nov 26 17:22:04 2014
Timers Off: Wed Nov 26 17:22:05 2014

Wall Time:        1.00 seconds

JK: (A|mn)  :       0.00u       0.00s       0.00w      2 calls
JK: (A|Q)^-1/2:       0.08u       0.00s       0.00w      2 calls
JK: (Q|mn)  :       0.00u       0.00s       0.00w      2 calls
Form H      :       0.00u       0.00s       0.00w      2 calls
Form S/X    :       0.00u       0.00s       0.00w      2 calls
Guess       :       0.00u       0.00s       0.00w      2 calls
Form G      :       0.03u       0.00s       0.00w     14 calls
JK: D       :       0.00u       0.00s       0.00w     14 calls
JK: USO2AO  :       0.00u       0.00s       0.00w     11 calls
JK: JK      :       0.00u       0.00s       0.00w     14 calls
JK: J       :       0.00u       0.00s       0.00w     11 calls
JK: J1      :       0.00u       0.00s       0.00w     11 calls
JK: J2      :       0.00u       0.00s       0.00w     11 calls
JK: K       :       0.00u       0.00s       0.00w     11 calls
JK: K1      :       0.00u       0.00s       0.00w     11 calls
JK: K2      :       0.00u       0.00s       0.00w     11 calls
JK: AO2USO  :       0.00u       0.00s       0.00w     11 calls
Form F      :       0.00u       0.00s       0.00w     14 calls
DIIS        :       0.00u       0.00s       0.00w     14 calls
DIISManager::add_entry:       0.00u       0.00s       0.00w     14 calls
Form C      :       0.02u       0.00s       0.00w     14 calls
Form D      :       0.00u       0.00s       0.00w     14 calls
DIISManager::extrapolate:       0.00u       0.00s       0.00w     12 calls
DIISManager::extrapolate: bMatrix setup:       0.00u       0.00s       0.00w     12 calls
DIISManager::extrapolate: bMatrix pseudoinverse:       0.00u       0.00s       0.00w     12 calls
DIISManager::extrapolate: form new data:       0.00u       0.00s       0.00w     12 calls

***********************************************************

Host: Kevins-MacBook-Pro.local

Timers On : Wed Nov 26 18:09:19 2014
Timers Off: Wed Nov 26 18:09:19 2014

Wall Time:        0.00 seconds

JK: (A|mn)  :       0.00u       0.00s       0.00w      2 calls
JK: (A|Q)^-1/2:       0.08u       0.00s       0.00w      2 calls
JK: (Q|mn)  :       0.00u       0.00s       0.00w      2 calls
Form H      :       0.00u       0.00s       0.00w      2 calls
Form S/X    :       0.00u       0.00s       0.00w      2 calls
Guess       :       0.00u       0.00s       0.00w      2 calls
Form G      :       0.05u       0.00s       0.00w     14 calls
JK: D       :       0.00u       0.00s       0.00w     14 calls
JK: USO2AO  :       0.00u       0.00s       0.00w     11 calls
JK: JK      :       0.00u       0.00s       0.00w     14 calls
JK: J       :       0.00u       0.00s       0.00w     11 calls
JK: J1      :       0.00u       0.00s       0.00w     11 calls
JK: J2      :       0.00u       0.00s       0.00w     11 calls
JK: K       :       0.00u       0.00s       0.00w     11 calls
JK: K1      :       0.00u       0.00s       0.00w     11 calls
JK: K2      :       0.00u       0.00s       0.00w     11 calls
JK: AO2USO  :       0.00u       0.00s       0.00w     11 calls
Form F      :       0.00u       0.00s       0.00w     14 calls
DIIS        :       0.00u       0.00s       0.00w     14 calls
DIISManager::add_entry:       0.00u       0.00s       0.00w     14 calls
Form C      :       0.00u       0.00s       0.00w     14 calls
Form D      :       0.00u       0.00s       0.00w     14 calls
DIISManager::extrapolate:       0.00u       0.00s       0.00w     12 calls
DIISManager::extrapolate: bMatrix setup:       0.00u       0.00s       0.00w     12 calls
DIISManager::extrapolate: bMatrix pseudoinverse:       0.00u       0.00s       0.00w     12 calls
DIISManager::extrapolate: form new data:       0.00u       0.00s       0.00w     12 calls

***********************************************************

Host: Kevins-MacBook-Pro.local

Timers On : Wed Nov 26 18:14:14 2014
Timers Off: Wed Nov 26 18:14:14 2014

Wall Time:        0.00 seconds

JK: (A|mn)  :       0.00u       0.00s       0.00w      2 calls
JK: (A|Q)^-1/2:       0.08u       0.00s       0.00w      2 calls
JK: (Q|mn)  :       0.00u       0.00s       0.00w      2 calls
Form H      :       0.00u       0.00s       0.00w      2 calls
Form S/X    :       0.00u       0.00s       0.00w      2 calls
Guess       :       0.00u       0.00s       0.00w      2 calls
Form G      :       0.05u       0.00s       0.00w     14 calls
JK: D       :       0.00u       0.00s       0.00w     14 calls
JK: USO2AO  :       0.00u       0.00s       0.00w     11 calls
JK: JK      :       0.00u       0.00s       0.00w     14 calls
JK: J       :       0.00u       0.00s       0.00w     11 calls
JK: J1      :       0.00u       0.00s       0.00w     11 calls
JK: J2      :       0.00u       0.00s       0.00w     11 calls
JK: K       :       0.00u       0.00s       0.00w     11 calls
JK: K1      :       0.00u       0.00s       0.00w     11 calls
JK: K2      :       0.00u       0.00s       0.00w     11 calls
JK: AO2USO  :       0.00u       0.00s       0.00w     11 calls
Form F      :       0.00u       0.00s       0.00w     14 calls
DIIS        :       0.00u       0.00s       0.00w     14 calls
DIISManager::add_entry:       0.00u       0.00s       0.00w     14 calls
Form C      :       0.00u       0.00s       0.00w     14 calls
Form D      :       0.00u       0.00s       0.00w     14 calls
DIISManager::extrapolate:       0.00u       0.00s       0.00w     12 calls
DIISManager::extrapolate: bMatrix setup:       0.00u       0.00s       0.00w     12 calls
DIISManager::extrapolate: bMatrix pseudoinverse:       0.00u       0.00s       0.00w     12 calls
DIISManager::extrapolate: form new data:       0.00u       0.00s       0.00w     12 calls

***********************************************************

Host: Kevins-MacBook-Pro.local

Timers On : Wed Nov 26 18:15:09 2014
Timers Off: Wed Nov 26 18:15:10 2014

Wall Time:        1.00 seconds

JK: (A|mn)  :       0.00u       0.00s       0.00w      2 calls
JK: (A|Q)^-1/2:       0.10u       0.00s       0.00w      2 calls
JK: (Q|mn)  :       0.00u       0.00s       0.00w      2 calls
Form H      :       0.00u       0.00s       0.00w      2 calls
Form S/X    :       0.00u       0.00s       0.00w      2 calls
Guess       :       0.00u       0.00s       0.00w      2 calls
Form G      :       0.05u       0.00s       0.00w     14 calls
JK: D       :       0.00u       0.00s       0.00w     14 calls
JK: USO2AO  :       0.00u       0.00s       0.00w     11 calls
JK: JK      :       0.00u       0.00s       0.00w     14 calls
JK: J       :       0.00u       0.00s       0.00w     11 calls
JK: J1      :       0.00u       0.00s       0.00w     11 calls
JK: J2      :       0.00u       0.00s       0.00w     11 calls
JK: K       :       0.00u       0.00s       0.00w     11 calls
JK: K1      :       0.00u       0.00s       0.00w     11 calls
JK: K2      :       0.00u       0.00s       0.00w     11 calls
JK: AO2USO  :       0.00u       0.00s       0.00w     11 calls
Form F      :       0.00u       0.00s       0.00w     14 calls
DIIS        :       0.00u       0.00s       0.00w     14 calls
DIISManager::add_entry:       0.00u       0.00s       0.00w     14 calls
Form C      :       0.00u       0.00s       0.00w     14 calls
Form D      :       0.00u       0.00s       0.00w     14 calls
DIISManager::extrapolate:       0.00u       0.00s       0.00w     12 calls
DIISManager::extrapolate: bMatrix setup:       0.00u       0.00s       0.00w     12 calls
DIISManager::extrapolate: bMatrix pseudoinverse:       0.00u       0.00s       0.00w     12 calls
DIISManager::extrapolate: form new data:       0.00u       0.00s       0.00w     12 calls

***********************************************************

Host: Kevins-MacBook-Pro.local

Timers On : Wed Nov 26 18:18:30 2014
Timers Off: Wed Nov 26 18:18:30 2014

Wall Time:        0.00 seconds

JK: (A|mn)  :       0.00u       0.00s       0.00w      2 calls
JK: (A|Q)^-1/2:       0.10u       0.00s       0.00w      2 calls
JK: (Q|mn)  :       0.00u       0.00s       0.00w      2 calls
Form H      :       0.00u       0.00s       0.00w      2 calls
Form S/X    :       0.00u       0.00s       0.00w      2 calls
Guess       :       0.00u       0.00s       0.00w      2 calls
Form G      :       0.05u       0.00s       0.00w     14 calls
JK: D       :       0.00u       0.00s       0.00w     14 calls
JK: USO2AO  :       0.00u       0.00s       0.00w     11 calls
JK: JK      :       0.00u       0.00s       0.00w     14 calls
JK: J       :       0.00u       0.00s       0.00w     11 calls
JK: J1      :       0.00u       0.00s       0.00w     11 calls
JK: J2      :       0.00u       0.00s       0.00w     11 calls
JK: K       :       0.00u       0.00s       0.00w     11 calls
JK: K1      :       0.00u       0.00s       0.00w     11 calls
JK: K2      :       0.00u       0.00s       0.00w     11 calls
JK: AO2USO  :       0.00u       0.00s       0.00w     11 calls
Form F      :       0.00u       0.00s       0.00w     14 calls
DIIS        :       0.00u       0.02s       0.00w     14 calls
DIISManager::add_entry:       0.00u       0.00s       0.00w     14 calls
Form C      :       0.00u       0.00s       0.00w     14 calls
Form D      :       0.00u       0.00s       0.00w     14 calls
DIISManager::extrapolate:       0.00u       0.02s       0.00w     12 calls
DIISManager::extrapolate: bMatrix setup:       0.00u       0.00s       0.00w     12 calls
DIISManager::extrapolate: bMatrix pseudoinverse:       0.00u       0.00s       0.00w     12 calls
DIISManager::extrapolate: form new data:       0.00u       0.00s       0.00w     12 calls

***********************************************************

Host: Kevins-MacBook-Pro.local

Timers On : Wed Nov 26 18:20:33 2014
Timers Off: Wed Nov 26 18:20:34 2014

Wall Time:        1.00 seconds

JK: (A|mn)  :       0.00u       0.00s       0.00w      2 calls
JK: (A|Q)^-1/2:       0.10u       0.00s       0.00w      2 calls
JK: (Q|mn)  :       0.00u       0.00s       0.00w      2 calls
Form H      :       0.00u       0.00s       0.00w      2 calls
Form S/X    :       0.00u       0.00s       0.00w      2 calls
Guess       :       0.00u       0.00s       0.00w      2 calls
Form G      :       0.05u       0.00s       0.00w     14 calls
JK: D       :       0.00u       0.00s       0.00w     14 calls
JK: USO2AO  :       0.00u       0.00s       0.00w     11 calls
JK: JK      :       0.00u       0.00s       0.00w     14 calls
JK: J       :       0.00u       0.00s       0.00w     11 calls
JK: J1      :       0.00u       0.00s       0.00w     11 calls
JK: J2      :       0.00u       0.00s       0.00w     11 calls
JK: K       :       0.00u       0.00s       0.00w     11 calls
JK: K1      :       0.00u       0.00s       0.00w     11 calls
JK: K2      :       0.00u       0.00s       0.00w     11 calls
JK: AO2USO  :       0.00u       0.00s       0.00w     11 calls
Form F      :       0.00u       0.00s       0.00w     14 calls
DIIS        :       0.00u       0.00s       0.00w     14 calls
DIISManager::add_entry:       0.00u       0.00s       0.00w     14 calls
Form C      :       0.00u       0.00s       0.00w     14 calls
Form D      :       0.00u       0.00s       0.00w     14 calls
DIISManager::extrapolate:       0.00u       0.00s       0.00w     12 calls
DIISManager::extrapolate: bMatrix setup:       0.00u       0.00s       0.00w     12 calls
DIISManager::extrapolate: bMatrix pseudoinverse:       0.00u       0.00s       0.00w     12 calls
DIISManager::extrapolate: form new data:       0.00u       0.00s       0.00w     12 calls

***********************************************************

Host: Kevins-MacBook-Pro.local

Timers On : Wed Nov 26 18:24:04 2014
Timers Off: Wed Nov 26 18:24:04 2014

Wall Time:        0.00 seconds

JK: (A|mn)  :       0.02u       0.00s       0.00w      2 calls
JK: (A|Q)^-1/2:       0.08u       0.00s       0.00w      2 calls
JK: (Q|mn)  :       0.00u       0.00s       0.00w      2 calls
Form H      :       0.00u       0.00s       0.00w      2 calls
Form S/X    :       0.00u       0.00s       0.00w      2 calls
Guess       :       0.00u       0.00s       0.00w      2 calls
Form G      :       0.03u       0.00s       0.00w     14 calls
JK: D       :       0.00u       0.00s       0.00w     14 calls
JK: USO2AO  :       0.00u       0.00s       0.00w     11 calls
JK: JK      :       0.00u       0.00s       0.00w     14 calls
JK: J       :       0.00u       0.00s       0.00w     11 calls
JK: J1      :       0.00u       0.00s       0.00w     11 calls
JK: J2      :       0.00u       0.00s       0.00w     11 calls
JK: K       :       0.00u       0.00s       0.00w     11 calls
JK: K1      :       0.00u       0.00s       0.00w     11 calls
JK: K2      :       0.00u       0.00s       0.00w     11 calls
JK: AO2USO  :       0.00u       0.00s       0.00w     11 calls
Form F      :       0.00u       0.00s       0.00w     14 calls
DIIS        :       0.00u       0.00s       0.00w     14 calls
DIISManager::add_entry:       0.00u       0.00s       0.00w     14 calls
Form C      :       0.02u       0.00s       0.00w     14 calls
Form D      :       0.00u       0.00s       0.00w     14 calls
DIISManager::extrapolate:       0.00u       0.00s       0.00w     12 calls
DIISManager::extrapolate: bMatrix setup:       0.00u       0.00s       0.00w     12 calls
DIISManager::extrapolate: bMatrix pseudoinverse:       0.00u       0.00s       0.00w     12 calls
DIISManager::extrapolate: form new data:       0.00u       0.00s       0.00w     12 calls

***********************************************************

Host: Kevins-MacBook-Pro.local

Timers On : Wed Nov 26 18:24:23 2014
Timers Off: Wed Nov 26 18:24:23 2014

Wall Time:        0.00 seconds

JK: (A|mn)  :       0.00u       0.00s       0.00w      2 calls
JK: (A|Q)^-1/2:       0.08u       0.00s       0.00w      2 calls
JK: (Q|mn)  :       0.00u       0.00s       0.00w      2 calls
Form H      :       0.00u       0.00s       0.00w      2 calls
Form S/X    :       0.00u       0.00s       0.00w      2 calls
Guess       :       0.00u       0.00s       0.00w      2 calls
Form G      :       0.05u       0.00s       0.00w     14 calls
JK: D       :       0.00u       0.00s       0.00w     14 calls
JK: USO2AO  :       0.00u       0.00s       0.00w     11 calls
JK: JK      :       0.00u       0.00s       0.00w     14 calls
JK: J       :       0.00u       0.00s       0.00w     11 calls
JK: J1      :       0.00u       0.00s       0.00w     11 calls
JK: J2      :       0.00u       0.00s       0.00w     11 calls
JK: K       :       0.00u       0.00s       0.00w     11 calls
JK: K1      :       0.00u       0.00s       0.00w     11 calls
JK: K2      :       0.00u       0.00s       0.00w     11 calls
JK: AO2USO  :       0.00u       0.00s       0.00w     11 calls
Form F      :       0.00u       0.00s       0.00w     14 calls
DIIS        :       0.00u       0.00s       0.00w     14 calls
DIISManager::add_entry:       0.00u       0.00s       0.00w     14 calls
Form C      :       0.00u       0.00s       0.00w     14 calls
Form D      :       0.00u       0.00s       0.00w     14 calls
DIISManager::extrapolate:       0.00u       0.00s       0.00w     12 calls
DIISManager::extrapolate: bMatrix setup:       0.00u       0.00s       0.00w     12 calls
DIISManager::extrapolate: bMatrix pseudoinverse:       0.00u       0.00s       0.00w     12 calls
DIISManager::extrapolate: form new data:       0.00u       0.00s       0.00w     12 calls

***********************************************************

Host: Kevins-MacBook-Pro.local

Timers On : Wed Nov 26 18:24:47 2014
Timers Off: Wed Nov 26 18:24:47 2014

Wall Time:        0.00 seconds

JK: (A|mn)  :       0.00u       0.00s       0.00w      2 calls
JK: (A|Q)^-1/2:       0.10u       0.00s       0.00w      2 calls
JK: (Q|mn)  :       0.00u       0.00s       0.00w      2 calls
Form H      :       0.00u       0.00s       0.00w      2 calls
Form S/X    :       0.00u       0.00s       0.00w      2 calls
Guess       :       0.00u       0.00s       0.00w      2 calls
Form G      :       0.05u       0.00s       0.00w     14 calls
JK: D       :       0.00u       0.00s       0.00w     14 calls
JK: USO2AO  :       0.00u       0.00s       0.00w     11 calls
JK: JK      :       0.00u       0.00s       0.00w     14 calls
JK: J       :       0.00u       0.00s       0.00w     11 calls
JK: J1      :       0.00u       0.00s       0.00w     11 calls
JK: J2      :       0.00u       0.00s       0.00w     11 calls
JK: K       :       0.00u       0.00s       0.00w     11 calls
JK: K1      :       0.00u       0.00s       0.00w     11 calls
JK: K2      :       0.00u       0.00s       0.00w     11 calls
JK: AO2USO  :       0.00u       0.00s       0.00w     11 calls
Form F      :       0.00u       0.00s       0.00w     14 calls
DIIS        :       0.00u       0.00s       0.00w     14 calls
DIISManager::add_entry:       0.00u       0.00s       0.00w     14 calls
Form C      :       0.00u       0.00s       0.00w     14 calls
Form D      :       0.00u       0.00s       0.00w     14 calls
DIISManager::extrapolate:       0.00u       0.00s       0.00w     12 calls
DIISManager::extrapolate: bMatrix setup:       0.00u       0.00s       0.00w     12 calls
DIISManager::extrapolate: bMatrix pseudoinverse:       0.00u       0.00s       0.00w     12 calls
DIISManager::extrapolate: form new data:       0.00u       0.00s       0.00w     12 calls

***********************************************************

Host: Kevins-MacBook-Pro.local

Timers On : Wed Nov 26 18:53:41 2014
Timers Off: Wed Nov 26 18:53:42 2014

Wall Time:        1.00 seconds

JK: (A|mn)  :       0.00u       0.00s       0.00w      2 calls
JK: (A|Q)^-1/2:       0.10u       0.00s       0.00w      2 calls
JK: (Q|mn)  :       0.00u       0.00s       0.00w      2 calls
Form H      :       0.00u       0.00s       0.00w      2 calls
Form S/X    :       0.00u       0.00s       0.00w      2 calls
Guess       :       0.00u       0.00s       0.00w      2 calls
Form G      :       0.03u       0.00s       0.00w     14 calls
JK: D       :       0.00u       0.00s       0.00w     14 calls
JK: USO2AO  :       0.00u       0.00s       0.00w     11 calls
JK: JK      :       0.00u       0.00s       0.00w     14 calls
JK: J       :       0.00u       0.00s       0.00w     11 calls
JK: J1      :       0.00u       0.00s       0.00w     11 calls
JK: J2      :       0.00u       0.00s       0.00w     11 calls
JK: K       :       0.00u       0.00s       0.00w     11 calls
JK: K1      :       0.00u       0.00s       0.00w     11 calls
JK: K2      :       0.00u       0.00s       0.00w     11 calls
JK: AO2USO  :       0.00u       0.00s       0.00w     11 calls
Form F      :       0.00u       0.00s       0.00w     14 calls
DIIS        :       0.00u       0.00s       0.00w     14 calls
DIISManager::add_entry:       0.00u       0.00s       0.00w     14 calls
Form C      :       0.02u       0.00s       0.00w     14 calls
Form D      :       0.00u       0.00s       0.00w     14 calls
DIISManager::extrapolate:       0.00u       0.00s       0.00w     12 calls
DIISManager::extrapolate: bMatrix setup:       0.00u       0.00s       0.00w     12 calls
DIISManager::extrapolate: bMatrix pseudoinverse:       0.00u       0.00s       0.00w     12 calls
DIISManager::extrapolate: form new data:       0.00u       0.00s       0.00w     12 calls

***********************************************************

Host: Kevins-MacBook-Pro.local

Timers On : Wed Nov 26 19:20:53 2014
Timers Off: Wed Nov 26 19:20:54 2014

Wall Time:        1.00 seconds

JK: (A|mn)  :       0.00u       0.00s       0.00w      2 calls
JK: (A|Q)^-1/2:       0.10u       0.00s       0.00w      2 calls
JK: (Q|mn)  :       0.00u       0.00s       0.00w      2 calls
Form H      :       0.00u       0.00s       0.00w      2 calls
Form S/X    :       0.00u       0.00s       0.00w      2 calls
Guess       :       0.00u       0.00s       0.00w      2 calls
Form G      :       0.05u       0.00s       0.00w     14 calls
JK: D       :       0.00u       0.00s       0.00w     14 calls
JK: USO2AO  :       0.00u       0.00s       0.00w     11 calls
JK: JK      :       0.00u       0.00s       0.00w     14 calls
JK: J       :       0.00u       0.00s       0.00w     11 calls
JK: J1      :       0.00u       0.00s       0.00w     11 calls
JK: J2      :       0.00u       0.00s       0.00w     11 calls
JK: K       :       0.00u       0.00s       0.00w     11 calls
JK: K1      :       0.00u       0.00s       0.00w     11 calls
JK: K2      :       0.00u       0.00s       0.00w     11 calls
JK: AO2USO  :       0.00u       0.00s       0.00w     11 calls
Form F      :       0.00u       0.00s       0.00w     14 calls
DIIS        :       0.00u       0.00s       0.00w     14 calls
DIISManager::add_entry:       0.00u       0.00s       0.00w     14 calls
Form C      :       0.00u       0.00s       0.00w     14 calls
Form D      :       0.00u       0.00s       0.00w     14 calls
DIISManager::extrapolate:       0.00u       0.00s       0.00w     12 calls
DIISManager::extrapolate: bMatrix setup:       0.00u       0.00s       0.00w     12 calls
DIISManager::extrapolate: bMatrix pseudoinverse:       0.00u       0.00s       0.00w     12 calls
DIISManager::extrapolate: form new data:       0.00u       0.00s       0.00w     12 calls

***********************************************************

Host: Kevins-MacBook-Pro.local

Timers On : Wed Nov 26 19:21:12 2014
Timers Off: Wed Nov 26 19:21:13 2014

Wall Time:        1.00 seconds

JK: (A|mn)  :       0.00u       0.00s       0.00w      2 calls
JK: (A|Q)^-1/2:       0.10u       0.00s       0.00w      2 calls
JK: (Q|mn)  :       0.00u       0.00s       0.00w      2 calls
Form H      :       0.00u       0.00s       0.00w      2 calls
Form S/X    :       0.00u       0.00s       0.00w      2 calls
Guess       :       0.00u       0.00s       0.00w      2 calls
Form G      :       0.03u       0.00s       0.00w     14 calls
JK: D       :       0.00u       0.00s       0.00w     14 calls
JK: USO2AO  :       0.00u       0.00s       0.00w     11 calls
JK: JK      :       0.00u       0.00s       0.00w     14 calls
JK: J       :       0.00u       0.00s       0.00w     11 calls
JK: J1      :       0.00u       0.00s       0.00w     11 calls
JK: J2      :       0.00u       0.00s       0.00w     11 calls
JK: K       :       0.00u       0.00s       0.00w     11 calls
JK: K1      :       0.00u       0.00s       0.00w     11 calls
JK: K2      :       0.00u       0.00s       0.00w     11 calls
JK: AO2USO  :       0.00u       0.00s       0.00w     11 calls
Form F      :       0.00u       0.00s       0.00w     14 calls
DIIS        :       0.02u       0.00s       0.00w     14 calls
DIISManager::add_entry:       0.00u       0.00s       0.00w     14 calls
Form C      :       0.00u       0.00s       0.00w     14 calls
Form D      :       0.00u       0.00s       0.00w     14 calls
DIISManager::extrapolate:       0.02u       0.00s       0.00w     12 calls
DIISManager::extrapolate: bMatrix setup:       0.02u       0.00s       0.00w     12 calls
DIISManager::extrapolate: bMatrix pseudoinverse:       0.00u       0.00s       0.00w     12 calls
DIISManager::extrapolate: form new data:       0.00u       0.00s       0.00w     12 calls

***********************************************************

Host: Kevins-MacBook-Pro.local

Timers On : Wed Nov 26 19:31:26 2014
Timers Off: Wed Nov 26 19:31:27 2014

Wall Time:        1.00 seconds

JK: (A|mn)  :       0.00u       0.00s       0.00w      2 calls
JK: (A|Q)^-1/2:       0.08u       0.00s       0.00w      2 calls
JK: (Q|mn)  :       0.00u       0.00s       0.00w      2 calls
Form H      :       0.00u       0.00s       0.00w      2 calls
Form S/X    :       0.00u       0.00s       0.00w      2 calls
Guess       :       0.02u       0.00s       0.00w      2 calls
Form G      :       0.02u       0.00s       0.00w     14 calls
JK: D       :       0.00u       0.00s       0.00w     14 calls
JK: USO2AO  :       0.00u       0.00s       0.00w     11 calls
JK: JK      :       0.00u       0.00s       0.00w     14 calls
JK: J       :       0.00u       0.00s       0.00w     11 calls
JK: J1      :       0.00u       0.00s       0.00w     11 calls
JK: J2      :       0.00u       0.00s       0.00w     11 calls
JK: K       :       0.00u       0.00s       0.00w     11 calls
JK: K1      :       0.00u       0.00s       0.00w     11 calls
JK: K2      :       0.00u       0.00s       0.00w     11 calls
JK: AO2USO  :       0.00u       0.00s       0.00w     11 calls
Form F      :       0.00u       0.00s       0.00w     14 calls
DIIS        :       0.02u       0.00s       0.00w     14 calls
DIISManager::add_entry:       0.00u       0.00s       0.00w     14 calls
Form C      :       0.00u       0.00s       0.00w     14 calls
Form D      :       0.00u       0.00s       0.00w     14 calls
DIISManager::extrapolate:       0.02u       0.00s       0.00w     12 calls
DIISManager::extrapolate: bMatrix setup:       0.00u       0.00s       0.00w     12 calls
DIISManager::extrapolate: bMatrix pseudoinverse:       0.02u       0.00s       0.00w     12 calls
DIISManager::extrapolate: form new data:       0.00u       0.00s       0.00w     12 calls

***********************************************************

Host: Kevins-MacBook-Pro.local

Timers On : Wed Nov 26 19:49:52 2014
Timers Off: Wed Nov 26 19:49:53 2014

Wall Time:        1.00 seconds

JK: (A|mn)  :       0.00u       0.00s       0.00w      2 calls
JK: (A|Q)^-1/2:       0.10u       0.00s       0.00w      2 calls
JK: (Q|mn)  :       0.00u       0.00s       0.00w      2 calls
Form H      :       0.00u       0.00s       0.00w      2 calls
Form S/X    :       0.00u       0.00s       0.00w      2 calls
Guess       :       0.00u       0.00s       0.00w      2 calls
Form G      :       0.00u       0.00s       0.00w     15 calls
JK: D       :       0.00u       0.00s       0.00w     15 calls
JK: USO2AO  :       0.00u       0.00s       0.00w     12 calls
JK: JK      :       0.00u       0.00s       0.00w     15 calls
JK: J       :       0.00u       0.00s       0.00w     12 calls
JK: J1      :       0.00u       0.00s       0.00w     12 calls
JK: J2      :       0.00u       0.00s       0.00w     12 calls
JK: K       :       0.00u       0.00s       0.00w     12 calls
JK: K1      :       0.00u       0.00s       0.00w     12 calls
JK: K2      :       0.00u       0.00s       0.00w     12 calls
JK: AO2USO  :       0.00u       0.00s       0.00w     12 calls
Form F      :       0.00u       0.00s       0.00w     15 calls
DIIS        :       0.02u       0.00s       0.00w     15 calls
DIISManager::add_entry:       0.00u       0.00s       0.00w     15 calls
Form C      :       0.02u       0.00s       0.00w     15 calls
Form D      :       0.00u       0.00s       0.00w     15 calls
DIISManager::extrapolate:       0.00u       0.00s       0.00w     13 calls
DIISManager::extrapolate: bMatrix setup:       0.00u       0.00s       0.00w     13 calls
DIISManager::extrapolate: bMatrix pseudoinverse:       0.00u       0.00s       0.00w     13 calls
DIISManager::extrapolate: form new data:       0.00u       0.00s       0.00w     13 calls
DFMP2 Singles:       0.00u       0.00s       0.00w      1 call
DFMP2 Aia   :       0.08u       0.00s       0.00w      1 call
DFMP2 (A|mn):       0.00u       0.00s       0.00w      1 call
DFMP2 (A|mn)C_mi:       0.00u       0.00s       0.00w      1 call
DFMP2 (A|mi)C_na:       0.00u       0.00s       0.00w      1 call
DFMP2 Aia Write:       0.00u       0.00s       0.00w      1 call
DFMP2 Qia   :       0.05u       0.00s       0.00w      1 call
DFMP2 Metric:       0.05u       0.00s       0.00w      1 call
DFMP2 Aia Read:       0.00u       0.00s       0.00w      1 call
DFMP2 (Q|A)(A|ia):       0.00u       0.00s       0.00w      1 call
DFMP2 Qia Write:       0.00u       0.00s       0.00w      1 call
DFMP2 Energy:       0.00u       0.00s       0.00w      1 call
DFMP2 Qia Read:       0.00u       0.00s       0.00w      2 calls

***********************************************************

Host: Kevins-MacBook-Pro.local

Timers On : Wed Nov 26 19:50:28 2014
Timers Off: Wed Nov 26 19:50:29 2014

Wall Time:        1.00 seconds

JK: (A|mn)  :       0.00u       0.00s       0.00w      2 calls
JK: (A|Q)^-1/2:       0.10u       0.00s       0.00w      2 calls
JK: (Q|mn)  :       0.00u       0.00s       0.00w      2 calls
Form H      :       0.00u       0.00s       0.00w      2 calls
Form S/X    :       0.00u       0.00s       0.00w      2 calls
Guess       :       0.00u       0.00s       0.00w      2 calls
Form G      :       0.03u       0.00s       0.00w     15 calls
JK: D       :       0.00u       0.00s       0.00w     15 calls
JK: USO2AO  :       0.00u       0.00s       0.00w     12 calls
JK: JK      :       0.00u       0.00s       0.00w     15 calls
JK: J       :       0.00u       0.00s       0.00w     12 calls
JK: J1      :       0.00u       0.00s       0.00w     12 calls
JK: J2      :       0.00u       0.00s       0.00w     12 calls
JK: K       :       0.00u       0.00s       0.00w     12 calls
JK: K1      :       0.00u       0.00s       0.00w     12 calls
JK: K2      :       0.00u       0.00s       0.00w     12 calls
JK: AO2USO  :       0.00u       0.00s       0.00w     12 calls
Form F      :       0.02u       0.02s       0.00w     15 calls
DIIS        :       0.00u       0.02s       0.00w     15 calls
DIISManager::add_entry:       0.00u       0.02s       0.00w     15 calls
Form C      :       0.00u       0.00s       0.00w     15 calls
Form D      :       0.00u       0.02s       0.00w     15 calls
DIISManager::extrapolate:       0.00u       0.00s       0.00w     13 calls
DIISManager::extrapolate: bMatrix setup:       0.00u       0.00s       0.00w     13 calls
DIISManager::extrapolate: bMatrix pseudoinverse:       0.00u       0.00s       0.00w     13 calls
DIISManager::extrapolate: form new data:       0.00u       0.00s       0.00w     13 calls
DFMP2 Singles:       0.00u       0.00s       0.00w      1 call
DFMP2 Aia   :       0.08u       0.00s       1.00w      1 call
DFMP2 (A|mn):       0.00u       0.00s       0.00w      1 call
DFMP2 (A|mn)C_mi:       0.00u       0.00s       0.00w      1 call
DFMP2 (A|mi)C_na:       0.00u       0.00s       0.00w      1 call
DFMP2 Aia Write:       0.00u       0.00s       0.00w      1 call
DFMP2 Qia   :       0.05u       0.00s       0.00w      1 call
DFMP2 Metric:       0.05u       0.00s       0.00w      1 call
DFMP2 Aia Read:       0.00u       0.00s       0.00w      1 call
DFMP2 (Q|A)(A|ia):       0.00u       0.00s       0.00w      1 call
DFMP2 Qia Write:       0.00u       0.00s       0.00w      1 call
DFMP2 Energy:       0.00u       0.00s       0.00w      1 call
DFMP2 Qia Read:       0.00u       0.00s       0.00w      2 calls

***********************************************************

Host: Kevins-MacBook-Pro.local

Timers On : Wed Nov 26 20:05:56 2014
Timers Off: Wed Nov 26 20:05:57 2014

Wall Time:        1.00 seconds

JK: (A|mn)  :       0.00u       0.00s       0.00w      2 calls
JK: (A|Q)^-1/2:       0.08u       0.00s       0.00w      2 calls
JK: (Q|mn)  :       0.00u       0.00s       0.00w      2 calls
Form H      :       0.00u       0.00s       0.00w      2 calls
Form S/X    :       0.00u       0.00s       0.00w      2 calls
Guess       :       0.02u       0.00s       0.00w      2 calls
Form G      :       0.02u       0.00s       0.00w     15 calls
JK: D       :       0.00u       0.00s       0.00w     15 calls
JK: USO2AO  :       0.00u       0.00s       0.00w     12 calls
JK: JK      :       0.00u       0.00s       0.00w     15 calls
JK: J       :       0.00u       0.00s       0.00w     12 calls
JK: J1      :       0.00u       0.00s       0.00w     12 calls
JK: J2      :       0.00u       0.00s       0.00w     12 calls
JK: K       :       0.00u       0.00s       0.00w     12 calls
JK: K1      :       0.00u       0.00s       0.00w     12 calls
JK: K2      :       0.00u       0.00s       0.00w     12 calls
JK: AO2USO  :       0.00u       0.00s       0.00w     12 calls
Form F      :       0.02u       0.00s       0.00w     15 calls
DIIS        :       0.02u       0.00s       0.00w     15 calls
DIISManager::add_entry:       0.02u       0.00s       0.00w     15 calls
Form C      :       0.00u       0.00s       0.00w     15 calls
Form D      :       0.02u       0.03s       0.00w     15 calls
DIISManager::extrapolate:       0.00u       0.00s       0.00w     13 calls
DIISManager::extrapolate: bMatrix setup:       0.00u       0.00s       0.00w     13 calls
DIISManager::extrapolate: bMatrix pseudoinverse:       0.00u       0.00s       0.00w     13 calls
DIISManager::extrapolate: form new data:       0.00u       0.00s       0.00w     13 calls
DFMP2 Singles:       0.00u       0.00s       0.00w      1 call
DFMP2 Aia   :       0.08u       0.00s       0.00w      1 call
DFMP2 (A|mn):       0.00u       0.00s       0.00w      1 call
DFMP2 (A|mn)C_mi:       0.00u       0.00s       0.00w      1 call
DFMP2 (A|mi)C_na:       0.00u       0.00s       0.00w      1 call
DFMP2 Aia Write:       0.00u       0.00s       0.00w      1 call
DFMP2 Qia   :       0.05u       0.00s       1.00w      1 call
DFMP2 Metric:       0.05u       0.00s       1.00w      1 call
DFMP2 Aia Read:       0.00u       0.00s       0.00w      1 call
DFMP2 (Q|A)(A|ia):       0.00u       0.00s       0.00w      1 call
DFMP2 Qia Write:       0.00u       0.00s       0.00w      1 call
DFMP2 Energy:       0.00u       0.00s       0.00w      1 call
DFMP2 Qia Read:       0.00u       0.00s       0.00w      2 calls

***********************************************************

Host: Kevins-MacBook-Pro.local

Timers On : Wed Nov 26 20:06:35 2014
Timers Off: Wed Nov 26 20:06:36 2014

Wall Time:        1.00 seconds

JK: (A|mn)  :       0.00u       0.00s       0.00w      2 calls
JK: (A|Q)^-1/2:       0.10u       0.00s       0.00w      2 calls
JK: (Q|mn)  :       0.00u       0.00s       0.00w      2 calls
Form H      :       0.00u       0.00s       0.00w      2 calls
Form S/X    :       0.00u       0.00s       0.00w      2 calls
Guess       :       0.00u       0.00s       0.00w      2 calls
Form G      :       0.05u       0.00s       0.00w     15 calls
JK: D       :       0.00u       0.00s       0.00w     15 calls
JK: USO2AO  :       0.00u       0.00s       0.00w     12 calls
JK: JK      :       0.00u       0.00s       0.00w     15 calls
JK: J       :       0.00u       0.00s       0.00w     12 calls
JK: J1      :       0.00u       0.00s       0.00w     12 calls
JK: J2      :       0.00u       0.00s       0.00w     12 calls
JK: K       :       0.00u       0.00s       0.00w     12 calls
JK: K1      :       0.00u       0.00s       0.00w     12 calls
JK: K2      :       0.00u       0.00s       0.00w     12 calls
JK: AO2USO  :       0.00u       0.00s       0.00w     12 calls
Form F      :       0.02u       0.03s       0.00w     15 calls
DIIS        :       0.00u       0.00s       0.00w     15 calls
DIISManager::add_entry:       0.00u       0.00s       0.00w     15 calls
Form C      :       0.00u       0.00s       0.00w     15 calls
Form D      :       0.00u       0.00s       0.00w     15 calls
DIISManager::extrapolate:       0.00u       0.00s       0.00w     13 calls
DIISManager::extrapolate: bMatrix setup:       0.00u       0.00s       0.00w     13 calls
DIISManager::extrapolate: bMatrix pseudoinverse:       0.00u       0.00s       0.00w     13 calls
DIISManager::extrapolate: form new data:       0.00u       0.00s       0.00w     13 calls
DFMP2 Singles:       0.00u       0.00s       0.00w      1 call
DFMP2 Aia   :       0.08u       0.00s       0.00w      1 call
DFMP2 (A|mn):       0.00u       0.00s       0.00w      1 call
DFMP2 (A|mn)C_mi:       0.00u       0.00s       0.00w      1 call
DFMP2 (A|mi)C_na:       0.00u       0.00s       0.00w      1 call
DFMP2 Aia Write:       0.00u       0.00s       0.00w      1 call
DFMP2 Qia   :       0.05u       0.00s       0.00w      1 call
DFMP2 Metric:       0.05u       0.00s       0.00w      1 call
DFMP2 Aia Read:       0.00u       0.00s       0.00w      1 call
DFMP2 (Q|A)(A|ia):       0.00u       0.00s       0.00w      1 call
DFMP2 Qia Write:       0.00u       0.00s       0.00w      1 call
DFMP2 Energy:       0.00u       0.00s       0.00w      1 call
DFMP2 Qia Read:       0.00u       0.00s       0.00w      2 calls

***********************************************************

Host: Kevins-MacBook-Pro.local

Timers On : Wed Nov 26 20:07:23 2014
Timers Off: Wed Nov 26 20:07:24 2014

Wall Time:        1.00 seconds

JK: (A|mn)  :       0.00u       0.00s       0.00w      2 calls
JK: (A|Q)^-1/2:       0.10u       0.00s       0.00w      2 calls
JK: (Q|mn)  :       0.00u       0.00s       0.00w      2 calls
Form H      :       0.00u       0.00s       0.00w      2 calls
Form S/X    :       0.00u       0.00s       0.00w      2 calls
Guess       :       0.00u       0.00s       0.00w      2 calls
Form G      :       0.03u       0.00s       0.00w     15 calls
JK: D       :       0.00u       0.00s       0.00w     15 calls
JK: USO2AO  :       0.00u       0.00s       0.00w     12 calls
JK: JK      :       0.00u       0.00s       0.00w     15 calls
JK: J       :       0.00u       0.00s       0.00w     12 calls
JK: J1      :       0.00u       0.00s       0.00w     12 calls
JK: J2      :       0.00u       0.00s       0.00w     12 calls
JK: K       :       0.00u       0.00s       0.00w     12 calls
JK: K1      :       0.00u       0.00s       0.00w     12 calls
JK: K2      :       0.00u       0.00s       0.00w     12 calls
JK: AO2USO  :       0.00u       0.00s       0.00w     12 calls
Form F      :       0.02u       0.02s       0.00w     15 calls
DIIS        :       0.00u       0.00s       0.00w     15 calls
DIISManager::add_entry:       0.00u       0.00s       0.00w     15 calls
Form C      :       0.00u       0.00s       0.00w     15 calls
Form D      :       0.00u       0.00s       0.00w     15 calls
DIISManager::extrapolate:       0.00u       0.00s       0.00w     13 calls
DIISManager::extrapolate: bMatrix setup:       0.00u       0.00s       0.00w     13 calls
DIISManager::extrapolate: bMatrix pseudoinverse:       0.00u       0.00s       0.00w     13 calls
DIISManager::extrapolate: form new data:       0.00u       0.00s       0.00w     13 calls
DFMP2 Singles:       0.00u       0.00s       0.00w      1 call
DFMP2 Aia   :       0.08u       0.00s       0.00w      1 call
DFMP2 (A|mn):       0.00u       0.00s       0.00w      1 call
DFMP2 (A|mn)C_mi:       0.00u       0.00s       0.00w      1 call
DFMP2 (A|mi)C_na:       0.00u       0.00s       0.00w      1 call
DFMP2 Aia Write:       0.00u       0.00s       0.00w      1 call
DFMP2 Qia   :       0.05u       0.00s       0.00w      1 call
DFMP2 Metric:       0.05u       0.00s       0.00w      1 call
DFMP2 Aia Read:       0.00u       0.00s       0.00w      1 call
DFMP2 (Q|A)(A|ia):       0.00u       0.00s       0.00w      1 call
DFMP2 Qia Write:       0.00u       0.00s       0.00w      1 call
DFMP2 Energy:       0.00u       0.00s       0.00w      1 call
DFMP2 Qia Read:       0.00u       0.00s       0.00w      2 calls

***********************************************************

Host: Kevins-MacBook-Pro.local

Timers On : Wed Nov 26 20:11:17 2014
Timers Off: Wed Nov 26 20:11:18 2014

Wall Time:        1.00 seconds

JK: (A|mn)  :       0.00u       0.00s       0.00w      2 calls
JK: (A|Q)^-1/2:       0.08u       0.00s       0.00w      2 calls
JK: (Q|mn)  :       0.00u       0.00s       0.00w      2 calls
Form H      :       0.00u       0.00s       0.00w      2 calls
Form S/X    :       0.02u       0.00s       0.00w      2 calls
Guess       :       0.00u       0.00s       0.00w      2 calls
Form G      :       0.02u       0.00s       0.00w     15 calls
JK: D       :       0.00u       0.00s       0.00w     15 calls
JK: USO2AO  :       0.00u       0.00s       0.00w     12 calls
JK: JK      :       0.02u       0.00s       0.00w     15 calls
JK: J       :       0.00u       0.00s       0.00w     12 calls
JK: J1      :       0.00u       0.00s       0.00w     12 calls
JK: J2      :       0.00u       0.00s       0.00w     12 calls
JK: K       :       0.00u       0.00s       0.00w     12 calls
JK: K1      :       0.00u       0.00s       0.00w     12 calls
JK: K2      :       0.00u       0.00s       0.00w     12 calls
JK: AO2USO  :       0.00u       0.00s       0.00w     12 calls
Form F      :       0.02u       0.03s       0.00w     15 calls
DIIS        :       0.00u       0.00s       0.00w     15 calls
DIISManager::add_entry:       0.00u       0.00s       0.00w     15 calls
Form C      :       0.02u       0.00s       0.00w     15 calls
Form D      :       0.00u       0.00s       0.00w     15 calls
DIISManager::extrapolate:       0.00u       0.00s       0.00w     13 calls
DIISManager::extrapolate: bMatrix setup:       0.00u       0.00s       0.00w     13 calls
DIISManager::extrapolate: bMatrix pseudoinverse:       0.00u       0.00s       0.00w     13 calls
DIISManager::extrapolate: form new data:       0.00u       0.00s       0.00w     13 calls
DFMP2 Singles:       0.00u       0.00s       0.00w      1 call
DFMP2 Aia   :       0.08u       0.00s       0.00w      1 call
DFMP2 (A|mn):       0.00u       0.00s       0.00w      1 call
DFMP2 (A|mn)C_mi:       0.00u       0.00s       0.00w      1 call
DFMP2 (A|mi)C_na:       0.00u       0.00s       0.00w      1 call
DFMP2 Aia Write:       0.00u       0.00s       0.00w      1 call
DFMP2 Qia   :       0.05u       0.00s       0.00w      1 call
DFMP2 Metric:       0.05u       0.00s       0.00w      1 call
DFMP2 Aia Read:       0.00u       0.00s       0.00w      1 call
DFMP2 (Q|A)(A|ia):       0.00u       0.00s       0.00w      1 call
DFMP2 Qia Write:       0.00u       0.00s       0.00w      1 call
DFMP2 Energy:       0.00u       0.00s       0.00w      1 call
DFMP2 Qia Read:       0.00u       0.00s       0.00w      2 calls

***********************************************************

Host: Kevins-MacBook-Pro.local

Timers On : Wed Nov 26 20:12:40 2014
Timers Off: Wed Nov 26 20:12:41 2014

Wall Time:        1.00 seconds

JK: (A|mn)  :       0.02u       0.00s       0.00w      2 calls
JK: (A|Q)^-1/2:       0.08u       0.00s       0.00w      2 calls
JK: (Q|mn)  :       0.00u       0.00s       0.00w      2 calls
Form H      :       0.00u       0.00s       0.00w      2 calls
Form S/X    :       0.00u       0.00s       0.00w      2 calls
Guess       :       0.00u       0.00s       0.00w      2 calls
Form G      :       0.05u       0.00s       0.00w     15 calls
JK: D       :       0.00u       0.00s       0.00w     15 calls
JK: USO2AO  :       0.00u       0.00s       0.00w     12 calls
JK: JK      :       0.00u       0.00s       0.00w     15 calls
JK: J       :       0.00u       0.00s       0.00w     12 calls
JK: J1      :       0.00u       0.00s       0.00w     12 calls
JK: J2      :       0.00u       0.00s       0.00w     12 calls
JK: K       :       0.00u       0.00s       0.00w     12 calls
JK: K1      :       0.00u       0.00s       0.00w     12 calls
JK: K2      :       0.00u       0.00s       0.00w     12 calls
JK: AO2USO  :       0.00u       0.00s       0.00w     12 calls
Form F      :       0.02u       0.00s       0.00w     15 calls
DIIS        :       0.00u       0.00s       0.00w     15 calls
DIISManager::add_entry:       0.00u       0.00s       0.00w     15 calls
Form C      :       0.00u       0.00s       0.00w     15 calls
Form D      :       0.00u       0.02s       0.00w     15 calls
DIISManager::extrapolate:       0.00u       0.00s       0.00w     13 calls
DIISManager::extrapolate: bMatrix setup:       0.00u       0.00s       0.00w     13 calls
DIISManager::extrapolate: bMatrix pseudoinverse:       0.00u       0.00s       0.00w     13 calls
DIISManager::extrapolate: form new data:       0.00u       0.00s       0.00w     13 calls
DFMP2 Singles:       0.00u       0.00s       0.00w      1 call
DFMP2 Aia   :       0.08u       0.00s       0.00w      1 call
DFMP2 (A|mn):       0.00u       0.00s       0.00w      1 call
DFMP2 (A|mn)C_mi:       0.00u       0.00s       0.00w      1 call
DFMP2 (A|mi)C_na:       0.00u       0.00s       0.00w      1 call
DFMP2 Aia Write:       0.00u       0.00s       0.00w      1 call
DFMP2 Qia   :       0.05u       0.00s       0.00w      1 call
DFMP2 Metric:       0.05u       0.00s       0.00w      1 call
DFMP2 Aia Read:       0.00u       0.00s       0.00w      1 call
DFMP2 (Q|A)(A|ia):       0.00u       0.00s       0.00w      1 call
DFMP2 Qia Write:       0.00u       0.00s       0.00w      1 call
DFMP2 Energy:       0.00u       0.00s       0.00w      1 call
DFMP2 Qia Read:       0.00u       0.00s       0.00w      2 calls

***********************************************************

Host: Kevins-MacBook-Pro.local

Timers On : Wed Nov 26 20:16:32 2014
Timers Off: Wed Nov 26 20:16:33 2014

Wall Time:        1.00 seconds

JK: (A|mn)  :       0.02u       0.00s       0.00w      2 calls
JK: (A|Q)^-1/2:       0.08u       0.00s       0.00w      2 calls
JK: (Q|mn)  :       0.00u       0.00s       0.00w      2 calls
Form H      :       0.00u       0.00s       0.00w      2 calls
Form S/X    :       0.00u       0.00s       0.00w      2 calls
Guess       :       0.00u       0.00s       0.00w      2 calls
Form G      :       0.05u       0.00s       0.00w     15 calls
JK: D       :       0.00u       0.00s       0.00w     15 calls
JK: USO2AO  :       0.00u       0.00s       0.00w     12 calls
JK: JK      :       0.00u       0.00s       0.00w     15 calls
JK: J       :       0.00u       0.00s       0.00w     12 calls
JK: J1      :       0.00u       0.00s       0.00w     12 calls
JK: J2      :       0.00u       0.00s       0.00w     12 calls
JK: K       :       0.00u       0.00s       0.00w     12 calls
JK: K1      :       0.00u       0.00s       0.00w     12 calls
JK: K2      :       0.00u       0.00s       0.00w     12 calls
JK: AO2USO  :       0.00u       0.00s       0.00w     12 calls
Form F      :       0.02u       0.02s       0.00w     15 calls
DIIS        :       0.00u       0.00s       0.00w     15 calls
DIISManager::add_entry:       0.00u       0.00s       0.00w     15 calls
Form C      :       0.00u       0.00s       0.00w     15 calls
Form D      :       0.02u       0.00s       0.00w     15 calls
DIISManager::extrapolate:       0.00u       0.00s       0.00w     13 calls
DIISManager::extrapolate: bMatrix setup:       0.00u       0.00s       0.00w     13 calls
DIISManager::extrapolate: bMatrix pseudoinverse:       0.00u       0.00s       0.00w     13 calls
DIISManager::extrapolate: form new data:       0.00u       0.00s       0.00w     13 calls
DFMP2 Singles:       0.00u       0.00s       0.00w      1 call
DFMP2 Aia   :       0.08u       0.00s       0.00w      1 call
DFMP2 (A|mn):       0.00u       0.00s       0.00w      1 call
DFMP2 (A|mn)C_mi:       0.00u       0.00s       0.00w      1 call
DFMP2 (A|mi)C_na:       0.00u       0.00s       0.00w      1 call
DFMP2 Aia Write:       0.00u       0.00s       0.00w      1 call
DFMP2 Qia   :       0.05u       0.00s       0.00w      1 call
DFMP2 Metric:       0.05u       0.00s       0.00w      1 call
DFMP2 Aia Read:       0.00u       0.00s       0.00w      1 call
DFMP2 (Q|A)(A|ia):       0.00u       0.00s       0.00w      1 call
DFMP2 Qia Write:       0.00u       0.00s       0.00w      1 call
DFMP2 Energy:       0.00u       0.00s       0.00w      1 call
DFMP2 Qia Read:       0.00u       0.00s       0.00w      2 calls

***********************************************************

Host: Kevins-MacBook-Pro.local

Timers On : Wed Nov 26 20:17:45 2014
Timers Off: Wed Nov 26 20:17:46 2014

Wall Time:        1.00 seconds

JK: (A|mn)  :       0.02u       0.00s       0.00w      2 calls
JK: (A|Q)^-1/2:       0.08u       0.00s       0.00w      2 calls
JK: (Q|mn)  :       0.00u       0.00s       0.00w      2 calls
Form H      :       0.00u       0.00s       0.00w      2 calls
Form S/X    :       0.00u       0.00s       0.00w      2 calls
Guess       :       0.00u       0.00s       0.00w      2 calls
Form G      :       0.03u       0.00s       0.00w     15 calls
JK: D       :       0.00u       0.00s       0.00w     15 calls
JK: USO2AO  :       0.00u       0.00s       0.00w     12 calls
JK: JK      :       0.00u       0.00s       0.00w     15 calls
JK: J       :       0.00u       0.00s       0.00w     12 calls
JK: J1      :       0.00u       0.00s       0.00w     12 calls
JK: J2      :       0.00u       0.00s       0.00w     12 calls
JK: K       :       0.00u       0.00s       0.00w     12 calls
JK: K1      :       0.00u       0.00s       0.00w     12 calls
JK: K2      :       0.00u       0.00s       0.00w     12 calls
JK: AO2USO  :       0.00u       0.00s       0.00w     12 calls
Form F      :       0.00u       0.02s       0.00w     15 calls
DIIS        :       0.03u       0.00s       0.00w     15 calls
DIISManager::add_entry:       0.00u       0.00s       0.00w     15 calls
Form C      :       0.00u       0.00s       0.00w     15 calls
Form D      :       0.00u       0.02s       0.00w     15 calls
DIISManager::extrapolate:       0.02u       0.00s       0.00w     13 calls
DIISManager::extrapolate: bMatrix setup:       0.02u       0.00s       0.00w     13 calls
DIISManager::extrapolate: bMatrix pseudoinverse:       0.00u       0.00s       0.00w     13 calls
DIISManager::extrapolate: form new data:       0.00u       0.00s       0.00w     13 calls
DFMP2 Singles:       0.00u       0.00s       0.00w      1 call
DFMP2 Aia   :       0.08u       0.00s       0.00w      1 call
DFMP2 (A|mn):       0.00u       0.00s       0.00w      1 call
DFMP2 (A|mn)C_mi:       0.00u       0.00s       0.00w      1 call
DFMP2 (A|mi)C_na:       0.00u       0.00s       0.00w      1 call
DFMP2 Aia Write:       0.00u       0.00s       0.00w      1 call
DFMP2 Qia   :       0.05u       0.00s       0.00w      1 call
DFMP2 Metric:       0.05u       0.00s       0.00w      1 call
DFMP2 Aia Read:       0.00u       0.00s       0.00w      1 call
DFMP2 (Q|A)(A|ia):       0.00u       0.00s       0.00w      1 call
DFMP2 Qia Write:       0.00u       0.00s       0.00w      1 call
DFMP2 Energy:       0.00u       0.00s       0.00w      1 call
DFMP2 Qia Read:       0.00u       0.00s       0.00w      2 calls

***********************************************************

Host: Kevins-MacBook-Pro.local

Timers On : Wed Nov 26 20:19:09 2014
Timers Off: Wed Nov 26 20:19:10 2014

Wall Time:        1.00 seconds

JK: (A|mn)  :       0.00u       0.00s       0.00w      2 calls
JK: (A|Q)^-1/2:       0.10u       0.00s       0.00w      2 calls
JK: (Q|mn)  :       0.00u       0.00s       0.00w      2 calls
Form H      :       0.00u       0.00s       0.00w      2 calls
Form S/X    :       0.00u       0.00s       0.00w      2 calls
Guess       :       0.00u       0.00s       0.00w      2 calls
Form G      :       0.02u       0.00s       0.00w     15 calls
JK: D       :       0.00u       0.00s       0.00w     15 calls
JK: USO2AO  :       0.00u       0.00s       0.00w     12 calls
JK: JK      :       0.00u       0.00s       0.00w     15 calls
JK: J       :       0.00u       0.00s       0.00w     12 calls
JK: J1      :       0.00u       0.00s       0.00w     12 calls
JK: J2      :       0.00u       0.00s       0.00w     12 calls
JK: K       :       0.00u       0.00s       0.00w     12 calls
JK: K1      :       0.00u       0.00s       0.00w     12 calls
JK: K2      :       0.00u       0.00s       0.00w     12 calls
JK: AO2USO  :       0.00u       0.00s       0.00w     12 calls
Form F      :       0.00u       0.00s       0.00w     15 calls
DIIS        :       0.02u       0.02s       0.00w     15 calls
DIISManager::add_entry:       0.02u       0.00s       0.00w     15 calls
Form C      :       0.00u       0.00s       0.00w     15 calls
Form D      :       0.00u       0.00s       0.00w     15 calls
DIISManager::extrapolate:       0.00u       0.00s       0.00w     13 calls
DIISManager::extrapolate: bMatrix setup:       0.00u       0.00s       0.00w     13 calls
DIISManager::extrapolate: bMatrix pseudoinverse:       0.00u       0.00s       0.00w     13 calls
DIISManager::extrapolate: form new data:       0.00u       0.00s       0.00w     13 calls
DFMP2 Singles:       0.00u       0.00s       0.00w      1 call
DFMP2 Aia   :       0.08u       0.00s       0.00w      1 call
DFMP2 (A|mn):       0.00u       0.00s       0.00w      1 call
DFMP2 (A|mn)C_mi:       0.00u       0.00s       0.00w      1 call
DFMP2 (A|mi)C_na:       0.00u       0.00s       0.00w      1 call
DFMP2 Aia Write:       0.00u       0.00s       0.00w      1 call
DFMP2 Qia   :       0.05u       0.00s       0.00w      1 call
DFMP2 Metric:       0.05u       0.00s       0.00w      1 call
DFMP2 Aia Read:       0.00u       0.00s       0.00w      1 call
DFMP2 (Q|A)(A|ia):       0.00u       0.00s       0.00w      1 call
DFMP2 Qia Write:       0.00u       0.00s       0.00w      1 call
DFMP2 Energy:       0.00u       0.00s       0.00w      1 call
DFMP2 Qia Read:       0.00u       0.00s       0.00w      2 calls

***********************************************************

Host: Kevins-MacBook-Pro.local

Timers On : Wed Nov 26 20:21:33 2014
Timers Off: Wed Nov 26 20:21:35 2014

Wall Time:        2.00 seconds

JK: (A|mn)  :       0.02u       0.00s       0.00w      2 calls
JK: (A|Q)^-1/2:       0.12u       0.00s       0.00w      2 calls
JK: (Q|mn)  :       0.00u       0.00s       0.00w      2 calls
Form H      :       0.00u       0.00s       0.00w      2 calls
Form S/X    :       0.00u       0.00s       0.00w      2 calls
Guess       :       0.00u       0.00s       0.00w      2 calls
Form G      :       0.07u       0.02s       1.00w     30 calls
JK: D       :       0.00u       0.00s       0.00w     30 calls
JK: USO2AO  :       0.00u       0.00s       0.00w     24 calls
JK: JK      :       0.00u       0.00s       0.00w     30 calls
JK: J       :       0.00u       0.00s       0.00w     24 calls
JK: J1      :       0.00u       0.00s       0.00w     24 calls
JK: J2      :       0.00u       0.00s       0.00w     24 calls
JK: K       :       0.00u       0.00s       0.00w     24 calls
JK: K1      :       0.00u       0.00s       0.00w     24 calls
JK: K2      :       0.00u       0.00s       0.00w     24 calls
JK: AO2USO  :       0.00u       0.00s       0.00w     24 calls
Form F      :       0.00u       0.00s       0.00w     30 calls
DIIS        :       0.00u       0.00s       0.00w     30 calls
DIISManager::add_entry:       0.00u       0.00s       0.00w     30 calls
Form C      :       0.00u       0.00s       0.00w     30 calls
Form D      :       0.00u       0.00s       0.00w     30 calls
DIISManager::extrapolate:       0.00u       0.00s       0.00w     28 calls
DIISManager::extrapolate: bMatrix setup:       0.00u       0.00s       0.00w     28 calls
DIISManager::extrapolate: bMatrix pseudoinverse:       0.00u       0.00s       0.00w     28 calls
DIISManager::extrapolate: form new data:       0.00u       0.00s       0.00w     28 calls
DFMP2 Singles:       0.00u       0.00s       0.00w      1 call
DFMP2 Aia   :       0.13u       0.00s       0.00w      1 call
DFMP2 (A|mn):       0.00u       0.00s       0.00w      1 call
DFMP2 (A|mn)C_mi:       0.00u       0.00s       0.00w      1 call
DFMP2 (A|mi)C_na:       0.00u       0.00s       0.00w      1 call
DFMP2 Aia Write:       0.00u       0.00s       0.00w      1 call
DFMP2 Qia   :       0.07u       0.02s       0.00w      1 call
DFMP2 Metric:       0.07u       0.00s       0.00w      1 call
DFMP2 Aia Read:       0.00u       0.00s       0.00w      1 call
DFMP2 (Q|A)(A|ia):       0.00u       0.00s       0.00w      1 call
DFMP2 Qia Write:       0.00u       0.00s       0.00w      1 call
DFMP2 Energy:       0.00u       0.00s       0.00w      1 call
DFMP2 Qia Read:       0.00u       0.00s       0.00w      2 calls

***********************************************************

Host: Kevins-MacBook-Pro.local

Timers On : Wed Nov 26 20:23:04 2014
Timers Off: Wed Nov 26 20:23:06 2014

Wall Time:        2.00 seconds

JK: (A|mn)  :       0.02u       0.00s       0.00w      2 calls
JK: (A|Q)^-1/2:       0.13u       0.00s       0.00w      2 calls
JK: (Q|mn)  :       0.00u       0.00s       0.00w      2 calls
Form H      :       0.00u       0.00s       0.00w      2 calls
Form S/X    :       0.00u       0.00s       0.00w      2 calls
Guess       :       0.00u       0.00s       0.00w      2 calls
Form G      :       0.07u       0.02s       0.00w     30 calls
JK: D       :       0.00u       0.00s       0.00w     30 calls
JK: USO2AO  :       0.00u       0.00s       0.00w     24 calls
JK: JK      :       0.02u       0.02s       0.00w     30 calls
JK: J       :       0.00u       0.00s       0.00w     24 calls
JK: J1      :       0.00u       0.00s       0.00w     24 calls
JK: J2      :       0.00u       0.00s       0.00w     24 calls
JK: K       :       0.02u       0.00s       0.00w     24 calls
JK: K1      :       0.02u       0.00s       0.00w     24 calls
JK: K2      :       0.00u       0.00s       0.00w     24 calls
JK: AO2USO  :       0.00u       0.00s       0.00w     24 calls
Form F      :       0.00u       0.00s       0.00w     30 calls
DIIS        :       0.00u       0.00s       0.00w     30 calls
DIISManager::add_entry:       0.00u       0.00s       0.00w     30 calls
Form C      :       0.00u       0.00s       0.00w     30 calls
Form D      :       0.00u       0.00s       0.00w     30 calls
DIISManager::extrapolate:       0.00u       0.00s       0.00w     28 calls
DIISManager::extrapolate: bMatrix setup:       0.00u       0.00s       0.00w     28 calls
DIISManager::extrapolate: bMatrix pseudoinverse:       0.00u       0.00s       0.00w     28 calls
DIISManager::extrapolate: form new data:       0.00u       0.00s       0.00w     28 calls
DFMP2 Singles:       0.00u       0.00s       0.00w      1 call
DFMP2 Aia   :       0.15u       0.00s       0.00w      1 call
DFMP2 (A|mn):       0.02u       0.00s       0.00w      1 call
DFMP2 (A|mn)C_mi:       0.00u       0.00s       0.00w      1 call
DFMP2 (A|mi)C_na:       0.00u       0.00s       0.00w      1 call
DFMP2 Aia Write:       0.00u       0.00s       0.00w      1 call
DFMP2 Qia   :       0.05u       0.00s       0.00w      1 call
DFMP2 Metric:       0.05u       0.00s       0.00w      1 call
DFMP2 Aia Read:       0.00u       0.00s       0.00w      1 call
DFMP2 (Q|A)(A|ia):       0.00u       0.00s       0.00w      1 call
DFMP2 Qia Write:       0.00u       0.00s       0.00w      1 call
DFMP2 Energy:       0.00u       0.00s       0.00w      1 call
DFMP2 Qia Read:       0.00u       0.00s       0.00w      2 calls

***********************************************************

Host: Kevins-MacBook-Pro.local

Timers On : Wed Nov 26 20:26:05 2014
Timers Off: Wed Nov 26 20:26:06 2014

Wall Time:        1.00 seconds

JK: (A|mn)  :       0.02u       0.00s       0.00w      2 calls
JK: (A|Q)^-1/2:       0.12u       0.00s       0.00w      2 calls
JK: (Q|mn)  :       0.00u       0.00s       0.00w      2 calls
Form H      :       0.02u       0.00s       0.00w      2 calls
Form S/X    :       0.00u       0.00s       0.00w      2 calls
Guess       :       0.00u       0.00s       0.00w      2 calls
Form G      :       0.03u       0.02s       0.00w     30 calls
JK: D       :       0.00u       0.00s       0.00w     30 calls
JK: USO2AO  :       0.00u       0.00s       0.00w     24 calls
JK: JK      :       0.00u       0.02s       0.00w     30 calls
JK: J       :       0.00u       0.00s       0.00w     24 calls
JK: J1      :       0.00u       0.00s       0.00w     24 calls
JK: J2      :       0.00u       0.00s       0.00w     24 calls
JK: K       :       0.00u       0.00s       0.00w     24 calls
JK: K1      :       0.00u       0.00s       0.00w     24 calls
JK: K2      :       0.00u       0.00s       0.00w     24 calls
JK: AO2USO  :       0.00u       0.00s       0.00w     24 calls
Form F      :       0.00u       0.00s       0.00w     30 calls
DIIS        :       0.02u       0.00s       0.00w     30 calls
DIISManager::add_entry:       0.00u       0.00s       0.00w     30 calls
Form C      :       0.00u       0.00s       0.00w     30 calls
Form D      :       0.00u       0.00s       0.00w     30 calls
DIISManager::extrapolate:       0.02u       0.00s       0.00w     28 calls
DIISManager::extrapolate: bMatrix setup:       0.02u       0.00s       0.00w     28 calls
DIISManager::extrapolate: bMatrix pseudoinverse:       0.00u       0.00s       0.00w     28 calls
DIISManager::extrapolate: form new data:       0.00u       0.00s       0.00w     28 calls
DFMP2 Singles:       0.00u       0.00s       0.00w      1 call
DFMP2 Aia   :       0.13u       0.00s       0.00w      1 call
DFMP2 (A|mn):       0.02u       0.00s       0.00w      1 call
DFMP2 (A|mn)C_mi:       0.00u       0.00s       0.00w      1 call
DFMP2 (A|mi)C_na:       0.00u       0.00s       0.00w      1 call
DFMP2 Aia Write:       0.00u       0.00s       0.00w      1 call
DFMP2 Qia   :       0.05u       0.00s       0.00w      1 call
DFMP2 Metric:       0.05u       0.00s       0.00w      1 call
DFMP2 Aia Read:       0.00u       0.00s       0.00w      1 call
DFMP2 (Q|A)(A|ia):       0.00u       0.00s       0.00w      1 call
DFMP2 Qia Write:       0.00u       0.00s       0.00w      1 call
DFMP2 Energy:       0.00u       0.00s       0.00w      1 call
DFMP2 Qia Read:       0.00u       0.00s       0.00w      2 calls

***********************************************************

Host: Kevins-MacBook-Pro.local

Timers On : Wed Nov 26 20:26:27 2014
Timers Off: Wed Nov 26 20:26:27 2014

Wall Time:        0.00 seconds

JK: (A|mn)  :       0.00u       0.00s       0.00w      2 calls
JK: (A|Q)^-1/2:       0.08u       0.00s       0.00w      2 calls
JK: (Q|mn)  :       0.00u       0.00s       0.00w      2 calls
Form H      :       0.00u       0.00s       0.00w      2 calls
Form S/X    :       0.00u       0.00s       0.00w      2 calls
Guess       :       0.00u       0.00s       0.00w      2 calls
Form G      :       0.03u       0.00s       0.00w     15 calls
JK: D       :       0.00u       0.00s       0.00w     15 calls
JK: USO2AO  :       0.02u       0.00s       0.00w     12 calls
JK: JK      :       0.00u       0.00s       0.00w     15 calls
JK: J       :       0.00u       0.00s       0.00w     12 calls
JK: J1      :       0.00u       0.00s       0.00w     12 calls
JK: J2      :       0.00u       0.00s       0.00w     12 calls
JK: K       :       0.00u       0.00s       0.00w     12 calls
JK: K1      :       0.00u       0.00s       0.00w     12 calls
JK: K2      :       0.00u       0.00s       0.00w     12 calls
JK: AO2USO  :       0.00u       0.00s       0.00w     12 calls
Form F      :       0.00u       0.00s       0.00w     15 calls
DIIS        :       0.00u       0.00s       0.00w     15 calls
DIISManager::add_entry:       0.00u       0.00s       0.00w     15 calls
Form C      :       0.00u       0.00s       0.00w     15 calls
Form D      :       0.00u       0.00s       0.00w     15 calls
DIISManager::extrapolate:       0.00u       0.00s       0.00w     13 calls
DIISManager::extrapolate: bMatrix setup:       0.00u       0.00s       0.00w     13 calls
DIISManager::extrapolate: bMatrix pseudoinverse:       0.00u       0.00s       0.00w     13 calls
DIISManager::extrapolate: form new data:       0.00u       0.00s       0.00w     13 calls
DFMP2 Singles:       0.00u       0.00s       0.00w      1 call
DFMP2 Aia   :       0.08u       0.00s       0.00w      1 call
DFMP2 (A|mn):       0.00u       0.00s       0.00w      1 call
DFMP2 (A|mn)C_mi:       0.00u       0.00s       0.00w      1 call
DFMP2 (A|mi)C_na:       0.00u       0.00s       0.00w      1 call
DFMP2 Aia Write:       0.00u       0.00s       0.00w      1 call
DFMP2 Qia   :       0.05u       0.00s       0.00w      1 call
DFMP2 Metric:       0.05u       0.00s       0.00w      1 call
DFMP2 Aia Read:       0.00u       0.00s       0.00w      1 call
DFMP2 (Q|A)(A|ia):       0.00u       0.00s       0.00w      1 call
DFMP2 Qia Write:       0.00u       0.00s       0.00w      1 call
DFMP2 Energy:       0.00u       0.00s       0.00w      1 call
DFMP2 Qia Read:       0.00u       0.00s       0.00w      2 calls

***********************************************************

Host: Kevins-MacBook-Pro.local

Timers On : Wed Nov 26 20:31:05 2014
Timers Off: Wed Nov 26 20:31:06 2014

Wall Time:        1.00 seconds

JK: (A|mn)  :       0.00u       0.00s       0.00w      2 calls
JK: (A|Q)^-1/2:       0.08u       0.00s       0.00w      2 calls
JK: (Q|mn)  :       0.00u       0.00s       0.00w      2 calls
Form H      :       0.00u       0.00s       0.00w      2 calls
Form S/X    :       0.00u       0.00s       0.00w      2 calls
Guess       :       0.00u       0.00s       0.00w      2 calls
Form G      :       0.05u       0.00s       0.00w     15 calls
JK: D       :       0.00u       0.00s       0.00w     15 calls
JK: USO2AO  :       0.00u       0.00s       0.00w     12 calls
JK: JK      :       0.02u       0.00s       0.00w     15 calls
JK: J       :       0.00u       0.00s       0.00w     12 calls
JK: J1      :       0.00u       0.00s       0.00w     12 calls
JK: J2      :       0.00u       0.00s       0.00w     12 calls
JK: K       :       0.00u       0.00s       0.00w     12 calls
JK: K1      :       0.00u       0.00s       0.00w     12 calls
JK: K2      :       0.00u       0.00s       0.00w     12 calls
JK: AO2USO  :       0.00u       0.00s       0.00w     12 calls
Form F      :       0.00u       0.00s       0.00w     15 calls
DIIS        :       0.00u       0.00s       0.00w     15 calls
DIISManager::add_entry:       0.00u       0.00s       0.00w     15 calls
Form C      :       0.00u       0.00s       0.00w     15 calls
Form D      :       0.00u       0.00s       0.00w     15 calls
DIISManager::extrapolate:       0.00u       0.00s       0.00w     13 calls
DIISManager::extrapolate: bMatrix setup:       0.00u       0.00s       0.00w     13 calls
DIISManager::extrapolate: bMatrix pseudoinverse:       0.00u       0.00s       0.00w     13 calls
DIISManager::extrapolate: form new data:       0.00u       0.00s       0.00w     13 calls
DFMP2 Singles:       0.00u       0.00s       0.00w      1 call
DFMP2 Aia   :       0.08u       0.00s       0.00w      1 call
DFMP2 (A|mn):       0.00u       0.00s       0.00w      1 call
DFMP2 (A|mn)C_mi:       0.00u       0.00s       0.00w      1 call
DFMP2 (A|mi)C_na:       0.00u       0.00s       0.00w      1 call
DFMP2 Aia Write:       0.00u       0.00s       0.00w      1 call
DFMP2 Qia   :       0.05u       0.00s       0.00w      1 call
DFMP2 Metric:       0.05u       0.00s       0.00w      1 call
DFMP2 Aia Read:       0.00u       0.00s       0.00w      1 call
DFMP2 (Q|A)(A|ia):       0.00u       0.00s       0.00w      1 call
DFMP2 Qia Write:       0.00u       0.00s       0.00w      1 call
DFMP2 Energy:       0.00u       0.00s       0.00w      1 call
DFMP2 Qia Read:       0.00u       0.00s       0.00w      2 calls

***********************************************************

Host: Kevins-MacBook-Pro.local

Timers On : Wed Nov 26 20:32:33 2014
Timers Off: Wed Nov 26 20:32:34 2014

Wall Time:        1.00 seconds

JK: (A|mn)  :       0.00u       0.00s       0.00w      2 calls
JK: (A|Q)^-1/2:       0.10u       0.00s       0.00w      2 calls
JK: (Q|mn)  :       0.00u       0.00s       0.00w      2 calls
Form H      :       0.00u       0.00s       0.00w      2 calls
Form S/X    :       0.00u       0.00s       0.00w      2 calls
Guess       :       0.00u       0.00s       0.00w      2 calls
Form G      :       0.03u       0.00s       0.00w     15 calls
JK: D       :       0.00u       0.00s       0.00w     15 calls
JK: USO2AO  :       0.00u       0.00s       0.00w     12 calls
JK: JK      :       0.00u       0.00s       0.00w     15 calls
JK: J       :       0.00u       0.00s       0.00w     12 calls
JK: J1      :       0.00u       0.00s       0.00w     12 calls
JK: J2      :       0.00u       0.00s       0.00w     12 calls
JK: K       :       0.00u       0.00s       0.00w     12 calls
JK: K1      :       0.00u       0.00s       0.00w     12 calls
JK: K2      :       0.00u       0.00s       0.00w     12 calls
JK: AO2USO  :       0.00u       0.00s       0.00w     12 calls
Form F      :       0.00u       0.00s       0.00w     15 calls
DIIS        :       0.02u       0.00s       0.00w     15 calls
DIISManager::add_entry:       0.00u       0.00s       0.00w     15 calls
Form C      :       0.00u       0.00s       0.00w     15 calls
Form D      :       0.00u       0.00s       0.00w     15 calls
DIISManager::extrapolate:       0.02u       0.00s       0.00w     13 calls
DIISManager::extrapolate: bMatrix setup:       0.02u       0.00s       0.00w     13 calls
DIISManager::extrapolate: bMatrix pseudoinverse:       0.00u       0.00s       0.00w     13 calls
DIISManager::extrapolate: form new data:       0.00u       0.00s       0.00w     13 calls
DFMP2 Singles:       0.00u       0.00s       0.00w      1 call
DFMP2 Aia   :       0.08u       0.00s       0.00w      1 call
DFMP2 (A|mn):       0.00u       0.00s       0.00w      1 call
DFMP2 (A|mn)C_mi:       0.00u       0.00s       0.00w      1 call
DFMP2 (A|mi)C_na:       0.00u       0.00s       0.00w      1 call
DFMP2 Aia Write:       0.00u       0.00s       0.00w      1 call
DFMP2 Qia   :       0.05u       0.00s       1.00w      1 call
DFMP2 Metric:       0.05u       0.00s       1.00w      1 call
DFMP2 Aia Read:       0.00u       0.00s       0.00w      1 call
DFMP2 (Q|A)(A|ia):       0.00u       0.00s       0.00w      1 call
DFMP2 Qia Write:       0.00u       0.00s       0.00w      1 call
DFMP2 Energy:       0.00u       0.00s       0.00w      1 call
DFMP2 Qia Read:       0.00u       0.00s       0.00w      2 calls

***********************************************************

Host: Kevins-MacBook-Pro.local

Timers On : Wed Nov 26 20:48:10 2014
Timers Off: Wed Nov 26 20:48:11 2014

Wall Time:        1.00 seconds

JK: (A|mn)  :       0.00u       0.00s       0.00w      2 calls
JK: (A|Q)^-1/2:       0.10u       0.00s       0.00w      2 calls
JK: (Q|mn)  :       0.00u       0.00s       0.00w      2 calls
Form H      :       0.00u       0.00s       0.00w      2 calls
Form S/X    :       0.00u       0.00s       0.00w      2 calls
Guess       :       0.00u       0.00s       0.00w      2 calls
Form G      :       0.03u       0.00s       0.00w     15 calls
JK: D       :       0.00u       0.00s       0.00w     15 calls
JK: USO2AO  :       0.00u       0.00s       0.00w     12 calls
JK: JK      :       0.00u       0.00s       0.00w     15 calls
JK: J       :       0.00u       0.00s       0.00w     12 calls
JK: J1      :       0.00u       0.00s       0.00w     12 calls
JK: J2      :       0.00u       0.00s       0.00w     12 calls
JK: K       :       0.00u       0.00s       0.00w     12 calls
JK: K1      :       0.00u       0.00s       0.00w     12 calls
JK: K2      :       0.00u       0.00s       0.00w     12 calls
JK: AO2USO  :       0.00u       0.00s       0.00w     12 calls
Form F      :       0.00u       0.00s       0.00w     15 calls
DIIS        :       0.00u       0.00s       0.00w     15 calls
DIISManager::add_entry:       0.00u       0.00s       0.00w     15 calls
Form C      :       0.02u       0.00s       0.00w     15 calls
Form D      :       0.00u       0.00s       0.00w     15 calls
DIISManager::extrapolate:       0.00u       0.00s       0.00w     13 calls
DIISManager::extrapolate: bMatrix setup:       0.00u       0.00s       0.00w     13 calls
DIISManager::extrapolate: bMatrix pseudoinverse:       0.00u       0.00s       0.00w     13 calls
DIISManager::extrapolate: form new data:       0.00u       0.00s       0.00w     13 calls
DFMP2 Singles:       0.00u       0.00s       0.00w      1 call
DFMP2 Aia   :       0.08u       0.02s       0.00w      1 call
DFMP2 (A|mn):       0.00u       0.00s       0.00w      1 call
DFMP2 (A|mn)C_mi:       0.00u       0.00s       0.00w      1 call
DFMP2 (A|mi)C_na:       0.00u       0.00s       0.00w      1 call
DFMP2 Aia Write:       0.00u       0.00s       0.00w      1 call
DFMP2 Qia   :       0.05u       0.00s       0.00w      1 call
DFMP2 Metric:       0.05u       0.00s       0.00w      1 call
DFMP2 Aia Read:       0.00u       0.00s       0.00w      1 call
DFMP2 (Q|A)(A|ia):       0.00u       0.00s       0.00w      1 call
DFMP2 Qia Write:       0.00u       0.00s       0.00w      1 call
DFMP2 Energy:       0.00u       0.00s       0.00w      1 call
DFMP2 Qia Read:       0.00u       0.00s       0.00w      2 calls

***********************************************************

Host: Kevins-MacBook-Pro.local

Timers On : Wed Nov 26 21:04:23 2014
Timers Off: Wed Nov 26 21:04:24 2014

Wall Time:        1.00 seconds

JK: (A|mn)  :       0.00u       0.00s       0.00w      2 calls
JK: (A|Q)^-1/2:       0.10u       0.00s       0.00w      2 calls
JK: (Q|mn)  :       0.00u       0.00s       0.00w      2 calls
Form H      :       0.00u       0.00s       0.00w      2 calls
Form S/X    :       0.00u       0.00s       0.00w      2 calls
Guess       :       0.00u       0.00s       0.00w      2 calls
Form G      :       0.05u       0.02s       0.00w     15 calls
JK: D       :       0.00u       0.00s       0.00w     15 calls
JK: USO2AO  :       0.00u       0.00s       0.00w     12 calls
JK: JK      :       0.00u       0.02s       0.00w     15 calls
JK: J       :       0.00u       0.00s       0.00w     12 calls
JK: J1      :       0.00u       0.00s       0.00w     12 calls
JK: J2      :       0.00u       0.00s       0.00w     12 calls
JK: K       :       0.00u       0.00s       0.00w     12 calls
JK: K1      :       0.00u       0.00s       0.00w     12 calls
JK: K2      :       0.00u       0.00s       0.00w     12 calls
JK: AO2USO  :       0.00u       0.00s       0.00w     12 calls
Form F      :       0.00u       0.00s       0.00w     15 calls
DIIS        :       0.00u       0.00s       0.00w     15 calls
DIISManager::add_entry:       0.00u       0.00s       0.00w     15 calls
Form C      :       0.00u       0.00s       0.00w     15 calls
Form D      :       0.00u       0.00s       0.00w     15 calls
DIISManager::extrapolate:       0.00u       0.00s       0.00w     13 calls
DIISManager::extrapolate: bMatrix setup:       0.00u       0.00s       0.00w     13 calls
DIISManager::extrapolate: bMatrix pseudoinverse:       0.00u       0.00s       0.00w     13 calls
DIISManager::extrapolate: form new data:       0.00u       0.00s       0.00w     13 calls
DFMP2 Singles:       0.00u       0.00s       0.00w      1 call
DFMP2 Aia   :       0.10u       0.02s       0.00w      1 call
DFMP2 (A|mn):       0.02u       0.02s       0.00w      1 call
DFMP2 (A|mn)C_mi:       0.00u       0.00s       0.00w      1 call
DFMP2 (A|mi)C_na:       0.00u       0.00s       0.00w      1 call
DFMP2 Aia Write:       0.00u       0.00s       0.00w      1 call
DFMP2 Qia   :       0.03u       0.00s       0.00w      1 call
DFMP2 Metric:       0.03u       0.00s       0.00w      1 call
DFMP2 Aia Read:       0.00u       0.00s       0.00w      1 call
DFMP2 (Q|A)(A|ia):       0.00u       0.00s       0.00w      1 call
DFMP2 Qia Write:       0.00u       0.00s       0.00w      1 call
DFMP2 Energy:       0.00u       0.00s       0.00w      1 call
DFMP2 Qia Read:       0.00u       0.00s       0.00w      2 calls

***********************************************************

Host: Kevins-MacBook-Pro.local

Timers On : Wed Nov 26 21:17:48 2014
Timers Off: Wed Nov 26 21:17:49 2014

Wall Time:        1.00 seconds

JK: (A|mn)  :       0.00u       0.00s       0.00w      2 calls
JK: (A|Q)^-1/2:       0.08u       0.00s       0.00w      2 calls
JK: (Q|mn)  :       0.00u       0.00s       0.00w      2 calls
Form H      :       0.02u       0.02s       0.00w      2 calls
Form S/X    :       0.00u       0.00s       0.00w      2 calls
Guess       :       0.00u       0.00s       0.00w      2 calls
Form G      :       0.02u       0.00s       0.00w     15 calls
JK: D       :       0.00u       0.00s       0.00w     15 calls
JK: USO2AO  :       0.00u       0.00s       0.00w     12 calls
JK: JK      :       0.00u       0.00s       0.00w     15 calls
JK: J       :       0.00u       0.00s       0.00w     12 calls
JK: J1      :       0.00u       0.00s       0.00w     12 calls
JK: J2      :       0.00u       0.00s       0.00w     12 calls
JK: K       :       0.00u       0.00s       0.00w     12 calls
JK: K1      :       0.00u       0.00s       0.00w     12 calls
JK: K2      :       0.00u       0.00s       0.00w     12 calls
JK: AO2USO  :       0.00u       0.00s       0.00w     12 calls
Form F      :       0.00u       0.00s       0.00w     15 calls
DIIS        :       0.00u       0.00s       0.00w     15 calls
DIISManager::add_entry:       0.00u       0.00s       0.00w     15 calls
Form C      :       0.00u       0.00s       0.00w     15 calls
Form D      :       0.00u       0.00s       0.00w     15 calls
DIISManager::extrapolate:       0.00u       0.00s       0.00w     13 calls
DIISManager::extrapolate: bMatrix setup:       0.00u       0.00s       0.00w     13 calls
DIISManager::extrapolate: bMatrix pseudoinverse:       0.00u       0.00s       0.00w     13 calls
DIISManager::extrapolate: form new data:       0.00u       0.00s       0.00w     13 calls
DFMP2 Singles:       0.00u       0.00s       0.00w      1 call
DFMP2 Aia   :       0.12u       0.00s       1.00w      1 call
DFMP2 (A|mn):       0.02u       0.00s       0.00w      1 call
DFMP2 (A|mn)C_mi:       0.00u       0.00s       0.00w      1 call
DFMP2 (A|mi)C_na:       0.00u       0.00s       0.00w      1 call
DFMP2 Aia Write:       0.00u       0.00s       0.00w      1 call
DFMP2 Qia   :       0.05u       0.00s       0.00w      1 call
DFMP2 Metric:       0.05u       0.00s       0.00w      1 call
DFMP2 Aia Read:       0.00u       0.00s       0.00w      1 call
DFMP2 (Q|A)(A|ia):       0.00u       0.00s       0.00w      1 call
[...]
DFMP2 Qia   :       0.12u       0.05s       0.00w      1 call
DFMP2 Metric:       0.07u       0.00s       0.00w      1 call
DFMP2 Aia Read:       0.00u       0.00s       0.00w      1 call
DFMP2 (Q|A)(A|ia):       0.00u       0.00s       0.00w      1 call
DFMP2 Qia Write:       0.00u       0.00s       0.00w      1 call
DFMP2 Energy:       0.00u       0.00s       0.00w      1 call
DFMP2 Qia Read:       0.00u       0.00s       0.00w      2 calls

***********************************************************

Host: Kevins-MacBook-Pro.local

Timers On : Fri Dec  5 16:00:08 2014
Timers Off: Fri Dec  5 16:00:14 2014

Wall Time:        6.00 seconds

JK: (A|mn)  :       0.07u       0.00s       0.00w      2 calls
JK: (A|Q)^-1/2:       0.15u       0.00s       0.00w      2 calls
JK: (Q|mn)  :       0.00u       0.00s       0.00w      2 calls
Form H      :       0.00u       0.02s       0.00w      2 calls
Form S/X    :       0.00u       0.00s       0.00w      2 calls
Guess       :       0.00u       0.00s       0.00w      2 calls
Form G      :       0.07u       0.00s       0.00w     26 calls
JK: D       :       0.00u       0.00s       0.00w     26 calls
JK: USO2AO  :       0.00u       0.00s       0.00w     20 calls
JK: JK      :       0.03u       0.00s       0.00w     26 calls
JK: J       :       0.02u       0.00s       0.00w     20 calls
JK: J1      :       0.02u       0.00s       0.00w     20 calls
JK: J2      :       0.00u       0.00s       0.00w     20 calls
JK: K       :       0.00u       0.00s       0.00w     20 calls
JK: K1      :       0.00u       0.00s       0.00w     20 calls
JK: K2      :       0.00u       0.00s       0.00w     20 calls
JK: AO2USO  :       0.00u       0.00s       0.00w     20 calls
Form F      :       0.00u       0.00s       0.00w     26 calls
DIIS        :       0.03u       0.00s       0.00w     26 calls
DIISManager::add_entry:       0.02u       0.00s       0.00w     26 calls
Form C      :       0.00u       0.00s       0.00w     26 calls
Form D      :       0.00u       0.00s       0.00w     26 calls
DIISManager::extrapolate:       0.00u       0.00s       0.00w     24 calls
DIISManager::extrapolate: bMatrix setup:       0.00u       0.00s       0.00w     24 calls
DIISManager::extrapolate: bMatrix pseudoinverse:       0.00u       0.00s       0.00w     24 calls
DIISManager::extrapolate: form new data:       0.00u       0.00s       0.00w     24 calls
DFMP2 Singles:       0.00u       0.00s       0.00w      1 call
DFMP2 Aia   :       0.50u       0.28s       0.00w      1 call
DFMP2 (A|mn):       0.25u       0.20s       0.00w      1 call
DFMP2 (A|mn)C_mi:       0.00u       0.00s       0.00w      1 call
DFMP2 (A|mi)C_na:       0.00u       0.00s       0.00w      1 call
DFMP2 Aia Write:       0.00u       0.00s       0.00w      1 call
DFMP2 Qia   :       0.10u       0.05s       0.00w      1 call
DFMP2 Metric:       0.07u       0.00s       0.00w      1 call
DFMP2 Aia Read:       0.00u       0.02s       0.00w      1 call
DFMP2 (Q|A)(A|ia):       0.00u       0.00s       0.00w      1 call
DFMP2 Qia Write:       0.00u       0.00s       0.00w      1 call
DFMP2 Energy:       0.02u       0.00s       0.00w      1 call
DFMP2 Qia Read:       0.00u       0.00s       0.00w      2 calls

***********************************************************

Host: Kevins-MacBook-Pro.local

Timers On : Fri Dec  5 16:01:08 2014
Timers Off: Fri Dec  5 16:01:14 2014

Wall Time:        6.00 seconds

JK: (A|mn)  :       0.07u       0.00s       0.00w      2 calls
JK: (A|Q)^-1/2:       0.13u       0.00s       0.00w      2 calls
JK: (Q|mn)  :       0.00u       0.00s       0.00w      2 calls
Form H      :       0.02u       0.00s       0.00w      2 calls
Form S/X    :       0.00u       0.00s       0.00w      2 calls
Guess       :       0.00u       0.00s       0.00w      2 calls
Form G      :       0.05u       0.00s       0.00w     26 calls
JK: D       :       0.00u       0.00s       0.00w     26 calls
JK: USO2AO  :       0.00u       0.00s       0.00w     20 calls
JK: JK      :       0.02u       0.00s       0.00w     26 calls
JK: J       :       0.00u       0.00s       0.00w     20 calls
JK: J1      :       0.00u       0.00s       0.00w     20 calls
JK: J2      :       0.00u       0.00s       0.00w     20 calls
JK: K       :       0.02u       0.00s       0.00w     20 calls
JK: K1      :       0.02u       0.00s       0.00w     20 calls
JK: K2      :       0.00u       0.00s       0.00w     20 calls
JK: AO2USO  :       0.00u       0.00s       0.00w     20 calls
Form F      :       0.00u       0.00s       0.00w     26 calls
DIIS        :       0.00u       0.00s       0.00w     26 calls
DIISManager::add_entry:       0.00u       0.00s       0.00w     26 calls
Form C      :       0.02u       0.00s       0.00w     26 calls
Form D      :       0.00u       0.00s       0.00w     26 calls
DIISManager::extrapolate:       0.00u       0.00s       0.00w     24 calls
DIISManager::extrapolate: bMatrix setup:       0.00u       0.00s       0.00w     24 calls
DIISManager::extrapolate: bMatrix pseudoinverse:       0.00u       0.00s       0.00w     24 calls
DIISManager::extrapolate: form new data:       0.00u       0.00s       0.00w     24 calls
DFMP2 Singles:       0.00u       0.00s       0.00w      1 call
DFMP2 Aia   :       0.55u       0.38s       1.00w      1 call
DFMP2 (A|mn):       0.28u       0.25s       1.00w      1 call
DFMP2 (A|mn)C_mi:       0.00u       0.00s       0.00w      1 call
DFMP2 (A|mi)C_na:       0.00u       0.00s       0.00w      1 call
DFMP2 Aia Write:       0.00u       0.00s       0.00w      1 call
DFMP2 Qia   :       0.12u       0.05s       0.00w      1 call
DFMP2 Metric:       0.07u       0.00s       0.00w      1 call
DFMP2 Aia Read:       0.00u       0.00s       0.00w      1 call
DFMP2 (Q|A)(A|ia):       0.00u       0.00s       0.00w      1 call
DFMP2 Qia Write:       0.00u       0.00s       0.00w      1 call
DFMP2 Energy:       0.00u       0.00s       0.00w      1 call
DFMP2 Qia Read:       0.00u       0.00s       0.00w      2 calls

***********************************************************

Host: Kevins-MacBook-Pro.local

Timers On : Fri Dec  5 16:05:36 2014
Timers Off: Fri Dec  5 16:05:37 2014

Wall Time:        1.00 seconds

JK: (A|mn)  :       0.00u       0.00s       0.00w      2 calls
JK: (A|Q)^-1/2:       0.10u       0.00s       0.00w      2 calls
JK: (Q|mn)  :       0.00u       0.00s       0.00w      2 calls
Form H      :       0.00u       0.00s       0.00w      2 calls
Form S/X    :       0.00u       0.00s       0.00w      2 calls
Guess       :       0.00u       0.00s       0.00w      2 calls
Form G      :       0.05u       0.00s       0.00w     15 calls
JK: D       :       0.00u       0.00s       0.00w     15 calls
JK: USO2AO  :       0.00u       0.00s       0.00w     12 calls
JK: JK      :       0.02u       0.00s       0.00w     15 calls
JK: J       :       0.00u       0.00s       0.00w     12 calls
JK: J1      :       0.00u       0.00s       0.00w     12 calls
JK: J2      :       0.00u       0.00s       0.00w     12 calls
JK: K       :       0.00u       0.00s       0.00w     12 calls
JK: K1      :       0.00u       0.00s       0.00w     12 calls
JK: K2      :       0.00u       0.00s       0.00w     12 calls
JK: AO2USO  :       0.00u       0.00s       0.00w     12 calls
Form F      :       0.00u       0.00s       0.00w     15 calls
DIIS        :       0.00u       0.00s       0.00w     15 calls
DIISManager::add_entry:       0.00u       0.00s       0.00w     15 calls
Form C      :       0.00u       0.00s       0.00w     15 calls
Form D      :       0.00u       0.00s       0.00w     15 calls
DIISManager::extrapolate:       0.00u       0.00s       0.00w     13 calls
DIISManager::extrapolate: bMatrix setup:       0.00u       0.00s       0.00w     13 calls
DIISManager::extrapolate: bMatrix pseudoinverse:       0.00u       0.00s       0.00w     13 calls
DIISManager::extrapolate: form new data:       0.00u       0.00s       0.00w     13 calls
DFMP2 Singles:       0.00u       0.00s       0.00w      1 call
DFMP2 Aia   :       0.10u       0.02s       0.00w      1 call
DFMP2 (A|mn):       0.00u       0.02s       0.00w      1 call
DFMP2 (A|mn)C_mi:       0.00u       0.00s       0.00w      1 call
DFMP2 (A|mi)C_na:       0.00u       0.00s       0.00w      1 call
DFMP2 Aia Write:       0.00u       0.00s       0.00w      1 call
DFMP2 Qia   :       0.05u       0.00s       0.00w      1 call
DFMP2 Metric:       0.05u       0.00s       0.00w      1 call
DFMP2 Aia Read:       0.00u       0.00s       0.00w      1 call
DFMP2 (Q|A)(A|ia):       0.00u       0.00s       0.00w      1 call
DFMP2 Qia Write:       0.00u       0.00s       0.00w      1 call
DFMP2 Energy:       0.00u       0.00s       0.00w      1 call
DFMP2 Qia Read:       0.00u       0.00s       0.00w      2 calls

***********************************************************

Host: Kevins-MacBook-Pro.local

Timers On : Sat Dec  6 14:36:05 2014
Timers Off: Sat Dec  6 14:36:19 2014

Wall Time:       14.00 seconds

JK: (A|mn)  :       0.13u       0.00s       0.00w      2 calls
JK: (A|Q)^-1/2:       0.18u       0.00s       0.00w      2 calls
JK: (Q|mn)  :       0.00u       0.00s       0.00w      2 calls
Form H      :       0.00u       0.00s       0.00w      2 calls
Form S/X    :       0.00u       0.00s       0.00w      2 calls
Guess       :       0.00u       0.00s       0.00w      2 calls
Form G      :       0.18u       0.05s       2.00w     46 calls
JK: D       :       0.00u       0.00s       0.00w     46 calls
JK: USO2AO  :       0.00u       0.00s       0.00w     40 calls
JK: JK      :       0.13u       0.05s       2.00w     46 calls
JK: J       :       0.02u       0.02s       1.00w     40 calls
JK: J1      :       0.00u       0.00s       0.00w     40 calls
JK: J2      :       0.02u       0.02s       1.00w     40 calls
JK: K       :       0.08u       0.02s       0.00w     40 calls
JK: K1      :       0.08u       0.02s       0.00w     40 calls
JK: K2      :       0.00u       0.00s       0.00w     40 calls
JK: AO2USO  :       0.00u       0.00s       0.00w     40 calls
Form F      :       0.00u       0.00s       0.00w     46 calls
DIIS        :       0.03u       0.00s       0.00w     46 calls
DIISManager::add_entry:       0.00u       0.00s       0.00w     46 calls
Form C      :       0.03u       0.00s       0.00w     46 calls
Form D      :       0.00u       0.00s       0.00w     46 calls
DIISManager::extrapolate:       0.03u       0.00s       0.00w     44 calls
DIISManager::extrapolate: bMatrix setup:       0.00u       0.00s       0.00w     44 calls
DIISManager::extrapolate: bMatrix pseudoinverse:       0.00u       0.00s       0.00w     44 calls
DIISManager::extrapolate: form new data:       0.03u       0.00s       0.00w     44 calls
DFMP2 Singles:       0.00u       0.00s       0.00w      1 call
DFMP2 Aia   :       1.00u       0.72s       1.00w      1 call
DFMP2 (A|mn):       0.60u       0.50s       0.00w      1 call
DFMP2 (A|mn)C_mi:       0.00u       0.00s       0.00w      1 call
DFMP2 (A|mi)C_na:       0.00u       0.00s       0.00w      1 call
DFMP2 Aia Write:       0.00u       0.00s       0.00w      1 call
DFMP2 Qia   :       0.18u       0.08s       0.00w      1 call
DFMP2 Metric:       0.08u       0.00s       0.00w      1 call
DFMP2 Aia Read:       0.00u       0.00s       0.00w      1 call
DFMP2 (Q|A)(A|ia):       0.00u       0.00s       0.00w      1 call
DFMP2 Qia Write:       0.00u       0.00s       0.00w      1 call
DFMP2 Energy:       0.00u       0.00s       0.00w      1 call
DFMP2 Qia Read:       0.00u       0.00s       0.00w      2 calls

***********************************************************

Host: Kevins-MacBook-Pro.local

Timers On : Sat Dec  6 14:39:28 2014
Timers Off: Sat Dec  6 14:39:42 2014

Wall Time:       14.00 seconds

JK: (A|mn)  :       0.13u       0.00s       0.00w      2 calls
JK: (A|Q)^-1/2:       0.17u       0.00s       0.00w      2 calls
JK: (Q|mn)  :       0.00u       0.00s       0.00w      2 calls
Form H      :       0.00u       0.00s       0.00w      2 calls
Form S/X    :       0.00u       0.00s       0.00w      2 calls
Guess       :       0.02u       0.00s       0.00w      2 calls
Form G      :       0.15u       0.05s       0.00w     46 calls
JK: D       :       0.00u       0.00s       0.00w     46 calls
JK: USO2AO  :       0.00u       0.00s       0.00w     40 calls
JK: JK      :       0.12u       0.05s       0.00w     46 calls
JK: J       :       0.00u       0.02s       0.00w     40 calls
JK: J1      :       0.00u       0.00s       0.00w     40 calls
JK: J2      :       0.00u       0.02s       0.00w     40 calls
JK: K       :       0.10u       0.02s       0.00w     40 calls
JK: K1      :       0.10u       0.02s       0.00w     40 calls
JK: K2      :       0.00u       0.00s       0.00w     40 calls
JK: AO2USO  :       0.00u       0.00s       0.00w     40 calls
Form F      :       0.00u       0.00s       0.00w     46 calls
DIIS        :       0.07u       0.00s       0.00w     46 calls
DIISManager::add_entry:       0.02u       0.00s       0.00w     46 calls
Form C      :       0.00u       0.00s       0.00w     46 calls
Form D      :       0.00u       0.00s       0.00w     46 calls
DIISManager::extrapolate:       0.05u       0.00s       0.00w     44 calls
DIISManager::extrapolate: bMatrix setup:       0.00u       0.00s       0.00w     44 calls
DIISManager::extrapolate: bMatrix pseudoinverse:       0.00u       0.00s       0.00w     44 calls
DIISManager::extrapolate: form new data:       0.05u       0.00s       0.00w     44 calls
DFMP2 Singles:       0.00u       0.00s       0.00w      1 call
DFMP2 Aia   :       0.95u       0.70s       1.00w      1 call
DFMP2 (A|mn):       0.58u       0.48s       1.00w      1 call
DFMP2 (A|mn)C_mi:       0.00u       0.00s       0.00w      1 call
DFMP2 (A|mi)C_na:       0.00u       0.00s       0.00w      1 call
DFMP2 Aia Write:       0.00u       0.00s       0.00w      1 call
DFMP2 Qia   :       0.17u       0.10s       0.00w      1 call
DFMP2 Metric:       0.07u       0.00s       0.00w      1 call
DFMP2 Aia Read:       0.00u       0.00s       0.00w      1 call
DFMP2 (Q|A)(A|ia):       0.00u       0.00s       0.00w      1 call
DFMP2 Qia Write:       0.00u       0.00s       0.00w      1 call
DFMP2 Energy:       0.02u       0.00s       0.00w      1 call
DFMP2 Qia Read:       0.00u       0.00s       0.00w      2 calls

***********************************************************

Host: Kevins-MacBook-Pro.local

Timers On : Sun Dec  7 10:42:48 2014
Timers Off: Sun Dec  7 10:42:54 2014

Wall Time:        6.00 seconds

JK: (A|mn)  :       0.07u       0.00s       0.00w      2 calls
JK: (A|Q)^-1/2:       0.13u       0.02s       0.00w      2 calls
JK: (Q|mn)  :       0.02u       0.00s       0.00w      2 calls
Form H      :       0.00u       0.00s       0.00w      2 calls
Form S/X    :       0.00u       0.00s       0.00w      2 calls
Guess       :       0.00u       0.00s       0.00w      2 calls
Form G      :       0.08u       0.00s       1.00w     26 calls
JK: D       :       0.00u       0.00s       0.00w     26 calls
JK: USO2AO  :       0.00u       0.00s       0.00w     20 calls
JK: JK      :       0.03u       0.00s       1.00w     26 calls
JK: J       :       0.00u       0.00s       0.00w     20 calls
JK: J1      :       0.00u       0.00s       0.00w     20 calls
JK: J2      :       0.00u       0.00s       0.00w     20 calls
JK: K       :       0.02u       0.00s       0.00w     20 calls
JK: K1      :       0.02u       0.00s       0.00w     20 calls
JK: K2      :       0.00u       0.00s       0.00w     20 calls
JK: AO2USO  :       0.00u       0.00s       0.00w     20 calls
Form F      :       0.00u       0.00s       0.00w     26 calls
DIIS        :       0.00u       0.00s       0.00w     26 calls
DIISManager::add_entry:       0.00u       0.00s       0.00w     26 calls
Form C      :       0.02u       0.00s       0.00w     26 calls
Form D      :       0.00u       0.00s       0.00w     26 calls
DIISManager::extrapolate:       0.00u       0.00s       0.00w     24 calls
DIISManager::extrapolate: bMatrix setup:       0.00u       0.00s       0.00w     24 calls
DIISManager::extrapolate: bMatrix pseudoinverse:       0.00u       0.00s       0.00w     24 calls
DIISManager::extrapolate: form new data:       0.00u       0.00s       0.00w     24 calls
DFMP2 Singles:       0.00u       0.00s       0.00w      1 call
DFMP2 Aia   :       0.52u       0.33s       1.00w      1 call
DFMP2 (A|mn):       0.25u       0.22s       0.00w      1 call
DFMP2 (A|mn)C_mi:       0.00u       0.00s       0.00w      1 call
DFMP2 (A|mi)C_na:       0.00u       0.00s       0.00w      1 call
DFMP2 Aia Write:       0.00u       0.00s       0.00w      1 call
DFMP2 Qia   :       0.13u       0.03s       0.00w      1 call
DFMP2 Metric:       0.07u       0.00s       0.00w      1 call
DFMP2 Aia Read:       0.00u       0.00s       0.00w      1 call
DFMP2 (Q|A)(A|ia):       0.00u       0.00s       0.00w      1 call
DFMP2 Qia Write:       0.00u       0.00s       0.00w      1 call
DFMP2 Energy:       0.00u       0.02s       0.00w      1 call
DFMP2 Qia Read:       0.00u       0.02s       0.00w      2 calls

***********************************************************

Host: Kevins-MacBook-Pro.local

Timers On : Wed Jan  7 14:35:03 2015
Timers Off: Wed Jan  7 14:35:06 2015

Wall Time:        3.00 seconds

JK: (A|mn)  :       0.03u       0.00s       0.00w      2 calls
JK: (A|Q)^-1/2:       0.07u       0.00s       0.00w      2 calls
JK: (Q|mn)  :       0.00u       0.00s       0.00w      2 calls
Form H      :       0.00u       0.00s       0.00w      2 calls
Form S/X    :       0.00u       0.00s       0.00w      2 calls
Guess       :       0.00u       0.00s       0.00w      2 calls
Form G      :       0.03u       0.00s       0.00w     26 calls
JK: D       :       0.00u       0.00s       0.00w     26 calls
JK: USO2AO  :       0.00u       0.00s       0.00w     20 calls
JK: JK      :       0.03u       0.00s       0.00w     26 calls
JK: J       :       0.00u       0.00s       0.00w     20 calls
JK: J1      :       0.00u       0.00s       0.00w     20 calls
JK: J2      :       0.00u       0.00s       0.00w     20 calls
JK: K       :       0.02u       0.00s       0.00w     20 calls
JK: K1      :       0.02u       0.00s       0.00w     20 calls
JK: K2      :       0.00u       0.00s       0.00w     20 calls
JK: AO2USO  :       0.00u       0.00s       0.00w     20 calls
Form F      :       0.00u       0.00s       0.00w     26 calls
DIIS        :       0.00u       0.00s       0.00w     26 calls
DIISManager::add_entry:       0.00u       0.00s       0.00w     26 calls
Form C      :       0.00u       0.00s       0.00w     26 calls
Form D      :       0.00u       0.00s       0.00w     26 calls
DIISManager::extrapolate:       0.00u       0.00s       0.00w     24 calls
DIISManager::extrapolate: bMatrix setup:       0.00u       0.00s       0.00w     24 calls
DIISManager::extrapolate: bMatrix pseudoinverse:       0.00u       0.00s       0.00w     24 calls
DIISManager::extrapolate: form new data:       0.00u       0.00s       0.00w     24 calls
DFMP2 Singles:       0.00u       0.00s       0.00w      1 call
DFMP2 Aia   :       0.07u       0.00s       0.00w      1 call
DFMP2 (A|mn):       0.02u       0.00s       0.00w      1 call
DFMP2 (A|mn)C_mi:       0.00u       0.00s       0.00w      1 call
DFMP2 (A|mi)C_na:       0.00u       0.00s       0.00w      1 call
DFMP2 Aia Write:       0.00u       0.00s       0.00w      1 call
DFMP2 Qia   :       0.03u       0.02s       0.00w      1 call
DFMP2 Metric:       0.03u       0.00s       0.00w      1 call
DFMP2 Aia Read:       0.00u       0.00s       0.00w      1 call
DFMP2 (Q|A)(A|ia):       0.00u       0.02s       0.00w      1 call
DFMP2 Qia Write:       0.00u       0.00s       0.00w      1 call
DFMP2 Energy:       0.00u       0.00s       0.00w      1 call
DFMP2 Qia Read:       0.00u       0.00s       0.00w      2 calls

***********************************************************
