    -----------------------------------------------------------------------
          PSI4: An Open-Source Ab Initio Electronic Structure Package
                              PSI 4.0 Driver

               Git: Rev {master} 556e8139d3cfa1f96ccffe2cdf22cc56a185d2b2

    J. M. Turney, A. C. Simmonett, R. M. Parrish, E. G. Hohenstein,
    F. A. Evangelista, J. T. Fermann, B. J. Mintz, L. A. Burns, J. J. Wilke,
    M. L. Abrams, N. J. Russ, M. L. Leininger, C. L. Janssen, E. T. Seidl,
    W. D. Allen, H. F. Schaefer, R. A. King, E. F. Valeev, C. D. Sherrill,
    and T. D. Crawford, WIREs Comput. Mol. Sci. 2, 556-565 (2012)
    (doi: 10.1002/wcms.93)

                         Additional Contributions by
    A. E. DePrince, M. Saitow, U. Bozkaya, A. Yu. Sokolov
    -----------------------------------------------------------------------

    Process ID:  14562
    PSI4DATADIR: /Users/kevinhannon/Programs/psi4cmake/psi4/lib
    Memory level set to 256.000 MB

  ==> Input File <==

--------------------------------------------------------------------------

# PYTHONPATH must include directory above plugin directory.
#     Define either externally or here, then import plugin.
sys.path.insert(0, '/Users/kevinhannon/Programs/Quantum_Programs/Quantum-Programs/GS/')
import scf

molecule {
0 1
H
H 1 1.10000
symmetry c1
units angstrom
}


set {
  basis cc-pvdz
  reference rhf
  scf_type  pk
}

set scf {
  DO_FTHF true
  MAX_ITER 130
  MAX_TEMP 20000
  TEMP_INCREMENT 0
  bisect  true
  bisect_iter  40
}
energy('rhf')
energy('scf')


--------------------------------------------------------------------------

*** tstart() called on Kevins-MacBook-Pro.local
*** at Sun Apr 12 15:45:57 2015

/Users/kevinhannon/Programs/Quantum_Programs/Quantum-Programs/GS/scf/scf.so loaded.

*** tstart() called on Kevins-MacBook-Pro.local
*** at Sun Apr 12 15:45:57 2015


         ---------------------------------------------------------
                                   SCF
            by Justin Turney, Rob Parrish, and Andy Simmonett
                              RHF Reference
                        1 Threads,    256 MiB Core
         ---------------------------------------------------------

  ==> Geometry <==

    Molecular point group: c1
    Full point group: D_inf_h

    Geometry (in Angstrom), charge = 0, multiplicity = 1:

       Center              X                  Y                   Z       
    ------------   -----------------  -----------------  -----------------
           H          0.000000000000     0.000000000000    -0.550000000000
           H          0.000000000000     0.000000000000     0.550000000000

  Running in c1 symmetry.

  Rotational constants: A = ************  B =     27.64751  C =     27.64751 [cm^-1]
  Rotational constants: A = ************  B = 828851.40948  C = 828851.40948 [MHz]
  Nuclear repulsion =    0.481070189627273

  Charge       = 0
  Multiplicity = 1
  Electrons    = 2
  Nalpha       = 1
  Nbeta        = 1

  ==> Algorithm <==

  SCF Algorithm Type is PK.
  DIIS enabled.
  MOM disabled.
  Fractional occupation disabled.
  Guess Type is CORE.
  Energy threshold   = 1.00e-06
  Density threshold  = 1.00e-06
  Integral threshold = 0.00e+00

  ==> Primary Basis <==

  Basis Set: CC-PVDZ
    Number of shells: 6
    Number of basis function: 10
    Number of Cartesian functions: 10
    Spherical Harmonics?: true
    Max angular momentum: 1

  ==> Pre-Iterations <==

   -------------------------------------------------------
    Irrep   Nso     Nmo     Nalpha   Nbeta   Ndocc  Nsocc
   -------------------------------------------------------
     A         10      10       0       0       0       0
   -------------------------------------------------------
    Total      10      10       1       1       1       0
   -------------------------------------------------------

  Starting with a DF guess...

 OEINTS: Overlap, kinetic, potential, dipole, and quadrupole integrals
         stored in file 35.

  ==> Integral Setup <==

  ==> DFJK: Density-Fitted J/K Matrices <==

    J tasked:                  Yes
    K tasked:                  Yes
    wK tasked:                  No
    OpenMP threads:              1
    Integrals threads:           1
    Memory (MB):               183
    Algorithm:                Core
    Integral Cache:           NONE
    Schwarz Cutoff:          1E-12
    Fitting Condition:       1E-12

   => Auxiliary Basis Set <=

  Basis Set: 
    Number of shells: 18
    Number of basis function: 46
    Number of Cartesian functions: 50
    Spherical Harmonics?: true
    Max angular momentum: 2

  Minimum eigenvalue in the overlap matrix is 1.2602117139E-01.
  Using Symmetric Orthogonalization.
  SCF Guess: Core (One-Electron) Hamiltonian.

  ==> Iterations <==

                           Total Energy        Delta E     RMS |[F,P]|

   @DF-RHF iter   1:    -1.03430474868596   -1.03430e+00   2.05904e-02 
   @DF-RHF iter   2:    -1.07971130022074   -4.54066e-02   3.60719e-03 DIIS
   @DF-RHF iter   3:    -1.08117069087567   -1.45939e-03   1.57757e-04 DIIS
   @DF-RHF iter   4:    -1.08117231722367   -1.62635e-06   7.12952e-06 DIIS
   @DF-RHF iter   5:    -1.08117232304089   -5.81722e-09   7.60186e-09 DIIS

  DF guess converged.

  ==> Integral Setup <==

 MINTS: Wrapper to libmints.
   by Justin Turney

   Calculation information:
      Number of atoms:                   2
      Number of AO shells:               6
      Number of SO shells:               6
      Number of primitives:             10
      Number of atomic orbitals:        10
      Number of basis functions:        10

      Number of irreps:                  1
      Integral cutoff                 0.00e+00
      Number of functions per irrep: [  10 ]

 OEINTS: Overlap, kinetic, potential, dipole, and quadrupole integrals
         stored in file 35.

      Computing two-electron integrals...done
      Computed 512 non-zero two-electron integrals.
        Stored in file 33.

	Batch   1 pq = [       0,      55] index = [             0,1540]
  ==> DiskJK: Disk-Based J/K Matrices <==

    J tasked:                  Yes
    K tasked:                  Yes
    wK tasked:                  No
    Memory (MB):               183
    Schwarz Cutoff:          1E-12

   @RHF iter   6:    -1.08117078340451    1.53964e-06   5.51558e-07 DIIS
   @RHF iter   7:    -1.08117078342162   -1.71132e-11   8.98479e-08 DIIS

  ==> Post-Iterations <==

    Orbital Energies (a.u.)
    -----------------------

    Doubly Occupied:                                                      

       1A     -0.504070  

    Virtual:                                                              

       2A      0.121816     3A      0.561524     4A      0.758239  
       5A      1.298118     6A      1.298118     7A      1.571229  
       8A      1.810600     9A      1.810600    10A      2.584006  

    Final Occupation by Irrep:
              A 
    DOCC [     1 ]

  Energy converged.

  @RHF Final Energy:    -1.08117078342162

   => Energetics <=

    Nuclear Repulsion Energy =              0.4810701896272727
    One-Electron Energy =                  -2.1163428986001822
    Two-Electron Energy =                   0.5541019255512908
    DFT Exchange-Correlation Energy =       0.0000000000000000
    Empirical Dispersion Energy =           0.0000000000000000
    PCM Polarization Energy =               0.0000000000000000
    EFP Energy =                            0.0000000000000000
    Total Energy =                         -1.0811707834216189

    Alert: EFP and PCM quantities not currently incorporated into SCF psivars.

Properties will be evaluated at   0.000000,   0.000000,   0.000000 Bohr
  ==> Properties <==


Properties computed using the SCF density matrix

  Nuclear Dipole Moment: (a.u.)
     X:     0.0000      Y:     0.0000      Z:     0.0000

  Electronic Dipole Moment: (a.u.)
     X:     0.0000      Y:     0.0000      Z:    -0.0000

  Dipole Moment: (a.u.)
     X:     0.0000      Y:     0.0000      Z:    -0.0000     Total:     0.0000

  Dipole Moment: (Debye)
     X:     0.0000      Y:     0.0000      Z:    -0.0000     Total:     0.0000


  Saving occupied orbitals to File 180.

*** tstop() called on Kevins-MacBook-Pro.local at Sun Apr 12 15:45:57 2015
Module time:
	user time   =       0.19 seconds =       0.00 minutes
	system time =       0.01 seconds =       0.00 minutes
	total time  =          0 seconds =       0.00 minutes
Total time:
	user time   =       0.21 seconds =       0.00 minutes
	system time =       0.01 seconds =       0.00 minutes
	total time  =          0 seconds =       0.00 minutes

*** tstart() called on Kevins-MacBook-Pro.local
*** at Sun Apr 12 15:45:57 2015


         ---------------------------------------------------------
                                   SCF
            by Justin Turney, Rob Parrish, and Andy Simmonett
                              RHF Reference
                        1 Threads,    256 MiB Core
         ---------------------------------------------------------

  ==> Geometry <==

    Molecular point group: c1
    Full point group: D_inf_h

    Geometry (in Angstrom), charge = 0, multiplicity = 1:

       Center              X                  Y                   Z       
    ------------   -----------------  -----------------  -----------------
           H          0.000000000000     0.000000000000    -0.550000000000
           H          0.000000000000     0.000000000000     0.550000000000

  Running in c1 symmetry.

  Rotational constants: A = ************  B =     27.64751  C =     27.64751 [cm^-1]
  Rotational constants: A = ************  B = 828851.40948  C = 828851.40948 [MHz]
  Nuclear repulsion =    0.481070189627273

  Charge       = 0
  Multiplicity = 1
  Electrons    = 2
  Nalpha       = 1
  Nbeta        = 1

  ==> Algorithm <==

  SCF Algorithm Type is PK.
  DIIS enabled.
  MOM disabled.
  Fractional occupation disabled.
  Guess Type is CORE.
  Energy threshold   = 1.00e-08
  Density threshold  = 1.00e-08
  Integral threshold = 0.00e+00

  ==> Primary Basis <==

  Basis Set: CC-PVDZ
    Number of shells: 6
    Number of basis function: 10
    Number of Cartesian functions: 10
    Spherical Harmonics?: true
    Max angular momentum: 1

  ==> Pre-Iterations <==

   -------------------------------------------------------
    Irrep   Nso     Nmo     Nalpha   Nbeta   Ndocc  Nsocc
   -------------------------------------------------------
     A         10      10       0       0       0       0
   -------------------------------------------------------
    Total      10      10       1       1       1       0
   -------------------------------------------------------

  Starting with a DF guess...

 OEINTS: Overlap, kinetic, potential, dipole, and quadrupole integrals
         stored in file 35.

  ==> Integral Setup <==

  ==> DFJK: Density-Fitted J/K Matrices <==

    J tasked:                  Yes
    K tasked:                  Yes
    wK tasked:                  No
    OpenMP threads:              1
    Integrals threads:           1
    Memory (MB):               183
    Algorithm:                Core
    Integral Cache:           NONE
    Schwarz Cutoff:          1E-12
    Fitting Condition:       1E-12

   => Auxiliary Basis Set <=

  Basis Set: 
    Number of shells: 18
    Number of basis function: 46
    Number of Cartesian functions: 50
    Spherical Harmonics?: true
    Max angular momentum: 2

  Minimum eigenvalue in the overlap matrix is 1.2602117139E-01.
  Using Symmetric Orthogonalization.
  SCF Guess: Core (One-Electron) Hamiltonian.

  ==> Iterations <==

                           Total Energy        Delta E     RMS |[F,P]|

   @DF-RHF iter   1:    -1.03430474868596   -1.03430e+00   2.05904e-02 
   @DF-RHF iter   2:    -1.07971130022074   -4.54066e-02   3.60719e-03 DIIS
   @DF-RHF iter   3:    -1.08117069087567   -1.45939e-03   1.57757e-04 DIIS
   @DF-RHF iter   4:    -1.08117231722367   -1.62635e-06   7.12952e-06 DIIS
   @DF-RHF iter   5:    -1.08117232304089   -5.81722e-09   7.60186e-09 DIIS

  DF guess converged.

  ==> Integral Setup <==

 MINTS: Wrapper to libmints.
   by Justin Turney

   Calculation information:
      Number of atoms:                   2
      Number of AO shells:               6
      Number of SO shells:               6
      Number of primitives:             10
      Number of atomic orbitals:        10
      Number of basis functions:        10

      Number of irreps:                  1
      Integral cutoff                 0.00e+00
      Number of functions per irrep: [  10 ]

 OEINTS: Overlap, kinetic, potential, dipole, and quadrupole integrals
         stored in file 35.

      Computing two-electron integrals...done
      Computed 512 non-zero two-electron integrals.
        Stored in file 33.

	Batch   1 pq = [       0,      55] index = [             0,1540]
  ==> DiskJK: Disk-Based J/K Matrices <==

    J tasked:                  Yes
    K tasked:                  Yes
    wK tasked:                  No
    Memory (MB):               183
    Schwarz Cutoff:          1E-12

   @RHF iter   6:    -1.08117078340451    1.53964e-06   5.51558e-07 DIIS
   @RHF iter   7:    -1.08117078342162   -1.71121e-11   8.98479e-08 DIIS
   @RHF iter   8:    -1.08117078342210   -4.81393e-13   2.09201e-09 DIIS

  ==> Post-Iterations <==

    Orbital Energies (a.u.)
    -----------------------

    Doubly Occupied:                                                      

       1A     -0.504070  

    Virtual:                                                              

       2A      0.121816     3A      0.561524     4A      0.758240  
       5A      1.298118     6A      1.298118     7A      1.571229  
       8A      1.810600     9A      1.810600    10A      2.584006  

    Final Occupation by Irrep:
              A 
    DOCC [     1 ]

  Energy converged.

  @RHF Final Energy:    -1.08117078342210

   => Energetics <=

    Nuclear Repulsion Energy =              0.4810701896272727
    One-Electron Energy =                  -2.1163429088832193
    Two-Electron Energy =                   0.5541019358338465
    DFT Exchange-Correlation Energy =       0.0000000000000000
    Empirical Dispersion Energy =           0.0000000000000000
    PCM Polarization Energy =               0.0000000000000000
    EFP Energy =                            0.0000000000000000
    Total Energy =                         -1.0811707834221003

    Alert: EFP and PCM quantities not currently incorporated into SCF psivars.

Properties will be evaluated at   0.000000,   0.000000,   0.000000 Bohr
  ==> Properties <==


Properties computed using the SCF density matrix

  Nuclear Dipole Moment: (a.u.)
     X:     0.0000      Y:     0.0000      Z:     0.0000

  Electronic Dipole Moment: (a.u.)
     X:     0.0000      Y:    -0.0000      Z:    -0.0000

  Dipole Moment: (a.u.)
     X:     0.0000      Y:    -0.0000      Z:    -0.0000     Total:     0.0000

  Dipole Moment: (Debye)
     X:     0.0000      Y:    -0.0000      Z:    -0.0000     Total:     0.0000


  Saving occupied orbitals to File 180.

*** tstop() called on Kevins-MacBook-Pro.local at Sun Apr 12 15:45:58 2015
Module time:
	user time   =       0.20 seconds =       0.00 minutes
	system time =       0.01 seconds =       0.00 minutes
	total time  =          1 seconds =       0.02 minutes
Total time:
	user time   =       0.42 seconds =       0.01 minutes
	system time =       0.02 seconds =       0.00 minutes
	total time  =          1 seconds =       0.02 minutes
Reading options from the SCF block
Calling plugin scf.so.
    Molecular point group: c1
    Full point group: D_inf_h

    Geometry (in Angstrom), charge = 0, multiplicity = 1:

       Center              X                  Y                   Z       
    ------------   -----------------  -----------------  -----------------
           H          0.000000000000     0.000000000000    -0.550000000000
           H          0.000000000000     0.000000000000     0.550000000000


    Nuclear repulsion energy:       0.48107019

  ## Overlap (Symmetry 0) ##
  Irrep: 1 Size: 10 x 10

                 1                   2                   3                   4                   5

    1     1.00000000000000     0.68486025149275     0.00000000000000     0.00000000000000     0.00000000000000
    2     0.68486025149275     1.00000000000000     0.00000000000000     0.00000000000000     0.00000000000000
    3     0.00000000000000     0.00000000000000     1.00000000000000     0.00000000000000     0.00000000000000
    4     0.00000000000000     0.00000000000000     0.00000000000000     1.00000000000000     0.00000000000000
    5     0.00000000000000     0.00000000000000     0.00000000000000     0.00000000000000     1.00000000000000
    6     0.31055123477960     0.44869660594756     0.37080394601826     0.00000000000000     0.00000000000000
    7     0.44869660594756     0.76829592801344     0.19059032352063     0.00000000000000     0.00000000000000
    8    -0.37080394601826    -0.19059032352063    -0.44519681515262     0.00000000000000     0.00000000000000
    9     0.00000000000000     0.00000000000000     0.00000000000000     0.20790390286076     0.00000000000000
   10     0.00000000000000     0.00000000000000     0.00000000000000     0.00000000000000     0.20790390286076

                 6                   7                   8                   9                  10

    1     0.31055123477960     0.44869660594756    -0.37080394601826     0.00000000000000     0.00000000000000
    2     0.44869660594756     0.76829592801344    -0.19059032352063     0.00000000000000     0.00000000000000
    3     0.37080394601826     0.19059032352063    -0.44519681515262     0.00000000000000     0.00000000000000
    4     0.00000000000000     0.00000000000000     0.00000000000000     0.20790390286076     0.00000000000000
    5     0.00000000000000     0.00000000000000     0.00000000000000     0.00000000000000     0.20790390286076
    6     1.00000000000000     0.68486025149275    -0.00000000000000     0.00000000000000     0.00000000000000
    7     0.68486025149275     1.00000000000000     0.00000000000000     0.00000000000000     0.00000000000000
    8    -0.00000000000000     0.00000000000000     1.00000000000000     0.00000000000000     0.00000000000000
    9     0.00000000000000     0.00000000000000     0.00000000000000     1.00000000000000     0.00000000000000
   10     0.00000000000000     0.00000000000000     0.00000000000000     0.00000000000000     1.00000000000000



  ## Kinetic (Symmetry 0) ##
  Irrep: 1 Size: 10 x 10

                 1                   2                   3                   4                   5

    1     0.96945722711242     0.20123413106538    -0.00000000000000     0.00000000000000     0.00000000000000
    2     0.20123413106538     0.18300000000000     0.00000000000000     0.00000000000000     0.00000000000000
    3    -0.00000000000000     0.00000000000000     1.81750000000000     0.00000000000000     0.00000000000000
    4     0.00000000000000     0.00000000000000     0.00000000000000     1.81750000000000     0.00000000000000
    5     0.00000000000000     0.00000000000000     0.00000000000000     0.00000000000000     1.81750000000000
    6     0.05320497030726     0.09441173205909     0.23948381963655     0.00000000000000     0.00000000000000
    7     0.09441173205909     0.11589221921085     0.08157794796036     0.00000000000000     0.00000000000000
    8    -0.23948381963655    -0.08157794796036    -0.77558637602465     0.00000000000000     0.00000000000000
    9     0.00000000000000     0.00000000000000     0.00000000000000     0.14046323245156     0.00000000000000
   10     0.00000000000000     0.00000000000000     0.00000000000000     0.00000000000000     0.14046323245156

                 6                   7                   8                   9                  10

    1     0.05320497030726     0.09441173205909    -0.23948381963655     0.00000000000000     0.00000000000000
    2     0.09441173205909     0.11589221921085    -0.08157794796036     0.00000000000000     0.00000000000000
    3     0.23948381963655     0.08157794796036    -0.77558637602465     0.00000000000000     0.00000000000000
    4     0.00000000000000     0.00000000000000     0.00000000000000     0.14046323245156     0.00000000000000
    5     0.00000000000000     0.00000000000000     0.00000000000000     0.00000000000000     0.14046323245156
    6     0.96945722711242     0.20123413106538     0.00000000000000     0.00000000000000     0.00000000000000
    7     0.20123413106538     0.18300000000000     0.00000000000000     0.00000000000000     0.00000000000000
    8     0.00000000000000     0.00000000000000     1.81750000000000     0.00000000000000     0.00000000000000
    9     0.00000000000000     0.00000000000000     0.00000000000000     1.81750000000000     0.00000000000000
   10     0.00000000000000     0.00000000000000     0.00000000000000     0.00000000000000     1.81750000000000



  ## Potential (Symmetry 0) ##
  Irrep: 1 Size: 10 x 10

                 1                   2                   3                   4                   5

    1    -1.85715728787255    -0.97132057979059    -0.14329955698875     0.00000000000000     0.00000000000000
    2    -0.97132057979059    -0.96798641086883    -0.12812419356951     0.00000000000000     0.00000000000000
    3    -0.14329955698875    -0.12812419356951    -1.46155564436400     0.00000000000000     0.00000000000000
    4     0.00000000000000     0.00000000000000     0.00000000000000    -1.34989416459520     0.00000000000000
    5     0.00000000000000     0.00000000000000     0.00000000000000     0.00000000000000    -1.34989416459520
    6    -0.53408158278760    -0.65902488960884    -0.65570025704335     0.00000000000000     0.00000000000000
    7    -0.65902488960884    -0.78680904590417    -0.33631177773416     0.00000000000000     0.00000000000000
    8     0.65570025704335     0.33631177773416     0.74853605126880     0.00000000000000     0.00000000000000
    9     0.00000000000000     0.00000000000000     0.00000000000000    -0.28933847326964     0.00000000000000
   10     0.00000000000000     0.00000000000000     0.00000000000000     0.00000000000000    -0.28933847326964

                 6                   7                   8                   9                  10

    1    -0.53408158278760    -0.65902488960884     0.65570025704335     0.00000000000000     0.00000000000000
    2    -0.65902488960884    -0.78680904590417     0.33631177773416     0.00000000000000     0.00000000000000
    3    -0.65570025704335    -0.33631177773416     0.74853605126880     0.00000000000000     0.00000000000000
    4     0.00000000000000     0.00000000000000     0.00000000000000    -0.28933847326964     0.00000000000000
    5     0.00000000000000     0.00000000000000     0.00000000000000     0.00000000000000    -0.28933847326964
    6    -1.85715728787255    -0.97132057979059     0.14329955698875     0.00000000000000     0.00000000000000
    7    -0.97132057979059    -0.96798641086883     0.12812419356951     0.00000000000000     0.00000000000000
    8     0.14329955698875     0.12812419356951    -1.46155564436400     0.00000000000000     0.00000000000000
    9     0.00000000000000     0.00000000000000     0.00000000000000    -1.34989416459520     0.00000000000000
   10     0.00000000000000     0.00000000000000     0.00000000000000     0.00000000000000    -1.34989416459520



  ## One Electron Ints (Symmetry 0) ##
  Irrep: 1 Size: 10 x 10

                 1                   2                   3                   4                   5

    1    -0.88770006076013    -0.77008644872520    -0.14329955698875     0.00000000000000     0.00000000000000
    2    -0.77008644872520    -0.78498641086883    -0.12812419356951     0.00000000000000     0.00000000000000
    3    -0.14329955698875    -0.12812419356951     0.35594435563600     0.00000000000000     0.00000000000000
    4     0.00000000000000     0.00000000000000     0.00000000000000     0.46760583540480     0.00000000000000
    5     0.00000000000000     0.00000000000000     0.00000000000000     0.00000000000000     0.46760583540480
    6    -0.48087661248034    -0.56461315754976    -0.41621643740680     0.00000000000000     0.00000000000000
    7    -0.56461315754976    -0.67091682669332    -0.25473382977380     0.00000000000000     0.00000000000000
    8     0.41621643740680     0.25473382977380    -0.02705032475585     0.00000000000000     0.00000000000000
    9     0.00000000000000     0.00000000000000     0.00000000000000    -0.14887524081807     0.00000000000000
   10     0.00000000000000     0.00000000000000     0.00000000000000     0.00000000000000    -0.14887524081807

                 6                   7                   8                   9                  10

    1    -0.48087661248034    -0.56461315754976     0.41621643740680     0.00000000000000     0.00000000000000
    2    -0.56461315754976    -0.67091682669332     0.25473382977380     0.00000000000000     0.00000000000000
    3    -0.41621643740680    -0.25473382977380    -0.02705032475585     0.00000000000000     0.00000000000000
    4     0.00000000000000     0.00000000000000     0.00000000000000    -0.14887524081807     0.00000000000000
    5     0.00000000000000     0.00000000000000     0.00000000000000     0.00000000000000    -0.14887524081807
    6    -0.88770006076013    -0.77008644872520     0.14329955698875     0.00000000000000     0.00000000000000
    7    -0.77008644872520    -0.78498641086883     0.12812419356951     0.00000000000000     0.00000000000000
    8     0.14329955698875     0.12812419356951     0.35594435563600     0.00000000000000     0.00000000000000
    9     0.00000000000000     0.00000000000000     0.00000000000000     0.46760583540480     0.00000000000000
   10     0.00000000000000     0.00000000000000     0.00000000000000     0.00000000000000     0.46760583540480




	There are 0 unique integrals

  ## Fock (Symmetry 0) ##
  Irrep: 1 Size: 10 x 10

                 1                   2                   3                   4                   5

    1    -0.49199376288016    -0.30161009834499     0.10441608244013     0.00000000000000     0.00000000000000
    2    -0.30161009834499    -0.33845555741770     0.17911410733798    -0.00000000000000     0.00000000000000
    3     0.10441608244013     0.17911410733798     0.83434572546911    -0.00000000000000     0.00000000000000
    4     0.00000000000000    -0.00000000000000    -0.00000000000000     0.52108079228006     0.00000000000000
    5     0.00000000000000     0.00000000000000     0.00000000000000     0.00000000000000     0.52108079228006
    6    -0.18476126529289    -0.12647562476401    -0.47239875753980    -0.00000000000000     0.00000000000000
    7    -0.12647562476401    -0.15078029993274    -0.18438741851692     0.00000000000000     0.00000000000000
    8     0.47239875753980     0.18438741851692     0.44963782262485    -0.00000000000000     0.00000000000000
    9    -0.00000000000000     0.00000000000000     0.00000000000000    -0.25720997123888     0.00000000000000
   10     0.00000000000000     0.00000000000000     0.00000000000000     0.00000000000000    -0.25720997123888

                 6                   7                   8                   9                  10

    1    -0.18476126529289    -0.12647562476402     0.47239875753980    -0.00000000000000     0.00000000000000
    2    -0.12647562476401    -0.15078029993274     0.18438741851692     0.00000000000000     0.00000000000000
    3    -0.47239875753980    -0.18438741851692     0.44963782262485     0.00000000000000     0.00000000000000
    4    -0.00000000000000     0.00000000000000    -0.00000000000000    -0.25720997123888     0.00000000000000
    5     0.00000000000000     0.00000000000000     0.00000000000000     0.00000000000000    -0.25720997123888
    6    -0.49199376288016    -0.30161009834499    -0.10441608244013     0.00000000000000     0.00000000000000
    7    -0.30161009834500    -0.33845555741770    -0.17911410733798    -0.00000000000000     0.00000000000000
    8    -0.10441608244013    -0.17911410733798     0.83434572546911     0.00000000000000     0.00000000000000
    9     0.00000000000000    -0.00000000000000     0.00000000000000     0.52108079228006     0.00000000000000
   10     0.00000000000000     0.00000000000000     0.00000000000000     0.00000000000000     0.52108079228006



  ## C (Symmetry 0) ##
  Irrep: 1 Size: 10 x 10

                 1                   2                   3                   4                   5

    1     0.98844083609088     0.82823652591810     0.06775269405210     0.00000000000000    -0.11026016038087
    2    -1.53091530946473    -0.69475590439948     0.83986300999943     0.00000000000000    -0.09829066437087
    3    -0.51380626786500     0.71884515360413    -0.10079553703908    -0.00000000000000    -0.07877321366916
    4    -0.40152802995157     0.59626535777340     0.01103490141844     0.07556105082526     0.00000000000000
    5    -0.02125128835587    -0.01299049268547    -0.07133794393464     0.71894290786316     0.00000000000000
    6    -0.07425293614077    -0.16193172882168     0.35707375413498     0.00000000000000    -0.88021586982325
    7     0.91894265142613     0.02309347754901    -1.35052818033868    -0.00000000000000     0.47480182418180
    8    -0.11494991045557     0.30232674836407     0.11577967274550    -0.00000000000000    -0.78890132691143
    9     0.04220068039771    -0.06266761450915    -0.00115977045995    -0.71894290786316    -0.00000000000000
   10     0.20220024575546     0.12360101512435     0.67876119102627    -0.07556105082526     0.00000000000000

                 6                   7                   8                   9                  10

    1     0.45396429894802     0.46414378145527    -0.29327165712716    -0.00000000000000     0.29593461201583
    2     0.47303187760337     0.67036039237668     0.00568971360679     0.00000000000000     0.12767226991585
    3    -0.30723864293581     0.85956185162737     0.18795542777617    -0.00000000000000     0.48496798606586
    4     0.40152802995157    -0.59626535777340     0.01103490141844    -0.07556105082526    -0.00000000000000
    5     0.02125128835587     0.01299049268547    -0.07133794393464     0.71894290786316     0.00000000000000
    6    -0.09718152039688    -0.17755099475444    -0.36674832389974     0.00000000000000    -1.07951257076879
    7     0.03729423614970    -0.57749750982208     0.97852225941879    -0.00000000000000     0.21009780206511
    8     0.06138525167907     0.42244867826226    -0.04137617669896    -0.00000000000000     0.98819802785697
    9    -0.04220068039771     0.06266761450915    -0.00115977045995     0.71894290786316    -0.00000000000000
   10    -0.20220024575546    -0.12360101512435     0.67876119102627    -0.07556105082526     0.00000000000000




 In Bisection function HOMO = -1.081  LUMO =  1.522

 0.22058 = (-1.08084 + 1.52201)/2.0
 sum -  nocc_ = 3.66822922
 On Iteration in Bisection 0
 a: 3.66823  b:-0.49848

 -0.43013 = (-1.08084 + 0.22058)/2.0
 sum -  nocc_ = 1.01445826
 On Iteration in Bisection 1
 a: 1.01446  b:-0.49848

 -0.75549 = (-1.08084 + -0.43013)/2.0
 sum -  nocc_ = 0.20007885
 On Iteration in Bisection 2
 a: 0.20008  b:-0.49848

 -0.91816 = (-1.08084 + -0.75549)/2.0
 sum -  nocc_ = -0.05170670
 On Iteration in Bisection 3
 a: -0.05171  b:-0.49848

 -0.83683 = (-0.91816 + -0.75549)/2.0
 sum -  nocc_ = 0.04618091
 On Iteration in Bisection 4
 a: 0.04618  b:-0.05171

 -0.87749 = (-0.91816 + -0.83683)/2.0
 sum -  nocc_ = -0.00237950
 On Iteration in Bisection 5
 a: -0.00238  b:-0.05171

 -0.85716 = (-0.87749 + -0.83683)/2.0
 sum -  nocc_ = 0.02105771
 On Iteration in Bisection 6
 a: 0.02106  b:-0.00238

 -0.86733 = (-0.87749 + -0.85716)/2.0
 sum -  nocc_ = 0.00924584
 On Iteration in Bisection 7
 a: 0.00925  b:-0.00238

 -0.87241 = (-0.87749 + -0.86733)/2.0
 sum -  nocc_ = 0.00342451
 On Iteration in Bisection 8
 a: 0.00342  b:-0.00238

 -0.87495 = (-0.87749 + -0.87241)/2.0
 sum -  nocc_ = 0.00052217
 On Iteration in Bisection 9
 a: 0.00052  b:-0.00238

 -0.87622 = (-0.87749 + -0.87495)/2.0
 sum -  nocc_ = -0.00092852
 On Iteration in Bisection 10
 a: -0.00093  b:-0.00238

 -0.87559 = (-0.87622 + -0.87495)/2.0
 sum -  nocc_ = -0.00020317
 On Iteration in Bisection 11
 a: -0.00020  b:-0.00093

 -0.87527 = (-0.87559 + -0.87495)/2.0
 sum -  nocc_ = 0.00015950
 On Iteration in Bisection 12
 a: 0.00016  b:-0.00020

 -0.87543 = (-0.87559 + -0.87527)/2.0
 sum -  nocc_ = -0.00002183
 On Iteration in Bisection 13
 a: -0.00002  b:-0.00020

 -0.87535 = (-0.87543 + -0.87527)/2.0
 sum -  nocc_ = 0.00006883
 On Iteration in Bisection 14
 a: 0.00007  b:-0.00002

 -0.87539 = (-0.87543 + -0.87535)/2.0
 sum -  nocc_ = 0.00002350
 On Iteration in Bisection 15
 a: 0.00002  b:-0.00002

 -0.87541 = (-0.87543 + -0.87539)/2.0
 sum -  nocc_ = 0.00000083
 On Iteration in Bisection 16
 a: 0.00000  b:-0.00002

 -0.87542 = (-0.87543 + -0.87541)/2.0
 sum -  nocc_ = -0.00001050
 On Iteration in Bisection 17
 a: -0.00001  b:-0.00002

 -0.87541 = (-0.87542 + -0.87541)/2.0
 sum -  nocc_ = -0.00000483
 On Iteration in Bisection 18
 a: -0.00000  b:-0.00001

 -0.87541 = (-0.87541 + -0.87541)/2.0
 sum -  nocc_ = -0.00000200
 On Iteration in Bisection 19
 a: -0.00000  b:-0.00000

 -0.87541 = (-0.87541 + -0.87541)/2.0
 sum -  nocc_ = -0.00000058
 On Iteration in Bisection 20
 a: -0.00000  b:-0.00000

 -0.87541 = (-0.87541 + -0.87541)/2.0
 sum -  nocc_ = 0.00000013
 On Iteration in Bisection 21
 a: 0.00000  b:-0.00000

 -0.87541 = (-0.87541 + -0.87541)/2.0
 sum -  nocc_ = -0.00000023
 On Iteration in Bisection 22
 a: -0.00000  b:-0.00000

 -0.87541 = (-0.87541 + -0.87541)/2.0
 sum -  nocc_ = -0.00000005
 On Iteration in Bisection 23
 a: -0.00000  b:-0.00000

 -0.87541 = (-0.87541 + -0.87541)/2.0
 sum -  nocc_ = 0.00000004
 On Iteration in Bisection 24
 a: 0.00000  b:-0.00000

 -0.87541 = (-0.87541 + -0.87541)/2.0
 sum -  nocc_ = -0.00000001
 ef = -0.87541 sum = 1.00000 

 Iter: 0  T:    20000.000  val:-0.875411  sumni 0.00000
 ne = 1.0000

Nuc Replusion =       0.481070189627
 1st iteration =       0.388132448466
 In Bisection function HOMO = -0.279  LUMO =  2.466

 1.09355 = (-0.27861 + 2.46571)/2.0
 sum -  nocc_ = 4.17322233
 On Iteration in Bisection 0
 a: 4.17322  b:-0.49895

 0.40747 = (-0.27861 + 1.09355)/2.0
 sum -  nocc_ = 1.61582986
 On Iteration in Bisection 1
 a: 1.61583  b:-0.49895

 0.06443 = (-0.27861 + 0.40747)/2.0
 sum -  nocc_ = 0.18808885
 On Iteration in Bisection 2
 a: 0.18809  b:-0.49895

 -0.10709 = (-0.27861 + 0.06443)/2.0
 sum -  nocc_ = -0.04701362
 On Iteration in Bisection 3
 a: -0.04701  b:-0.49895

 -0.02133 = (-0.10709 + 0.06443)/2.0
 sum -  nocc_ = 0.04058330
 On Iteration in Bisection 4
 a: 0.04058  b:-0.04701

 -0.06421 = (-0.10709 + -0.02133)/2.0
 sum -  nocc_ = -0.00273134
 On Iteration in Bisection 5
 a: -0.00273  b:-0.04701

 -0.04277 = (-0.06421 + -0.02133)/2.0
 sum -  nocc_ = 0.01807092
 On Iteration in Bisection 6
 a: 0.01807  b:-0.00273

 -0.05349 = (-0.06421 + -0.04277)/2.0
 sum -  nocc_ = 0.00757870
 On Iteration in Bisection 7
 a: 0.00758  b:-0.00273

 -0.05885 = (-0.06421 + -0.05349)/2.0
 sum -  nocc_ = 0.00241610
 On Iteration in Bisection 8
 a: 0.00242  b:-0.00273

 -0.06153 = (-0.06421 + -0.05885)/2.0
 sum -  nocc_ = -0.00015762
 On Iteration in Bisection 9
 a: -0.00016  b:-0.00273

 -0.06019 = (-0.06153 + -0.05885)/2.0
 sum -  nocc_ = 0.00112900
 On Iteration in Bisection 10
 a: 0.00113  b:-0.00016

 -0.06086 = (-0.06153 + -0.06019)/2.0
 sum -  nocc_ = 0.00048566
 On Iteration in Bisection 11
 a: 0.00049  b:-0.00016

 -0.06119 = (-0.06153 + -0.06086)/2.0
 sum -  nocc_ = 0.00016402
 On Iteration in Bisection 12
 a: 0.00016  b:-0.00016

 -0.06136 = (-0.06153 + -0.06119)/2.0
 sum -  nocc_ = 0.00000320
 On Iteration in Bisection 13
 a: 0.00000  b:-0.00016

 -0.06145 = (-0.06153 + -0.06136)/2.0
 sum -  nocc_ = -0.00007721
 On Iteration in Bisection 14
 a: -0.00008  b:-0.00016

 -0.06140 = (-0.06145 + -0.06136)/2.0
 sum -  nocc_ = -0.00003701
 On Iteration in Bisection 15
 a: -0.00004  b:-0.00008

 -0.06138 = (-0.06140 + -0.06136)/2.0
 sum -  nocc_ = -0.00001691
 On Iteration in Bisection 16
 a: -0.00002  b:-0.00004

 -0.06137 = (-0.06138 + -0.06136)/2.0
 sum -  nocc_ = -0.00000685
 On Iteration in Bisection 17
 a: -0.00001  b:-0.00002

 -0.06137 = (-0.06137 + -0.06136)/2.0
 sum -  nocc_ = -0.00000183
 On Iteration in Bisection 18
 a: -0.00000  b:-0.00001

 -0.06137 = (-0.06137 + -0.06136)/2.0
 sum -  nocc_ = 0.00000068
 On Iteration in Bisection 19
 a: 0.00000  b:-0.00000

 -0.06137 = (-0.06137 + -0.06137)/2.0
 sum -  nocc_ = -0.00000057
 On Iteration in Bisection 20
 a: -0.00000  b:-0.00000

 -0.06137 = (-0.06137 + -0.06137)/2.0
 sum -  nocc_ = 0.00000006
 On Iteration in Bisection 21
 a: 0.00000  b:-0.00000

 -0.06137 = (-0.06137 + -0.06137)/2.0
 sum -  nocc_ = -0.00000026
 On Iteration in Bisection 22
 a: -0.00000  b:-0.00000

 -0.06137 = (-0.06137 + -0.06137)/2.0
 sum -  nocc_ = -0.00000010
 On Iteration in Bisection 23
 a: -0.00000  b:-0.00000

 -0.06137 = (-0.06137 + -0.06137)/2.0
 sum -  nocc_ = -0.00000002
 On Iteration in Bisection 24
 a: -0.00000  b:-0.00000

 -0.06137 = (-0.06137 + -0.06137)/2.0
 sum -  nocc_ = 0.00000002
 On Iteration in Bisection 25
 a: 0.00000  b:-0.00000

 -0.06137 = (-0.06137 + -0.06137)/2.0
 sum -  nocc_ = -0.00000000
 ef = -0.06137 sum = 1.00000 

 Iter: 0  T:    20000.000  val:-0.061366  sumni 0.00000
 ne = 1.0000

 iter:1  failiter:1  energy:     -1.251043805684  total:     -0.769973616056  error:     -0.169873022262
 In Bisection function HOMO = -0.458  LUMO =  2.586

 1.06358 = (-0.45842 + 2.58557)/2.0
 sum -  nocc_ = 3.11309739
 On Iteration in Bisection 0
 a: 3.11310  b:-0.49974

 0.30258 = (-0.45842 + 1.06358)/2.0
 sum -  nocc_ = 1.01374809
 On Iteration in Bisection 1
 a: 1.01375  b:-0.49974

 -0.07792 = (-0.45842 + 0.30258)/2.0
 sum -  nocc_ = 0.09162327
 On Iteration in Bisection 2
 a: 0.09162  b:-0.49974

 -0.26817 = (-0.45842 + -0.07792)/2.0
 sum -  nocc_ = -0.04212434
 On Iteration in Bisection 3
 a: -0.04212  b:-0.49974

 -0.17304 = (-0.26817 + -0.07792)/2.0
 sum -  nocc_ = 0.01167666
 On Iteration in Bisection 4
 a: 0.01168  b:-0.04212

 -0.22060 = (-0.26817 + -0.17304)/2.0
 sum -  nocc_ = -0.01207313
 On Iteration in Bisection 5
 a: -0.01207  b:-0.04212

 -0.19682 = (-0.22060 + -0.17304)/2.0
 sum -  nocc_ = -0.00018633
 On Iteration in Bisection 6
 a: -0.00019  b:-0.01207

 -0.18493 = (-0.19682 + -0.17304)/2.0
 sum -  nocc_ = 0.00565470
 On Iteration in Bisection 7
 a: 0.00565  b:-0.00019

 -0.19088 = (-0.19682 + -0.18493)/2.0
 sum -  nocc_ = 0.00272329
 On Iteration in Bisection 8
 a: 0.00272  b:-0.00019

 -0.19385 = (-0.19682 + -0.19088)/2.0
 sum -  nocc_ = 0.00126721
 On Iteration in Bisection 9
 a: 0.00127  b:-0.00019

 -0.19534 = (-0.19682 + -0.19385)/2.0
 sum -  nocc_ = 0.00054030
 On Iteration in Bisection 10
 a: 0.00054  b:-0.00019

 -0.19608 = (-0.19682 + -0.19534)/2.0
 sum -  nocc_ = 0.00017697
 On Iteration in Bisection 11
 a: 0.00018  b:-0.00019

 -0.19645 = (-0.19682 + -0.19608)/2.0
 sum -  nocc_ = -0.00000468
 On Iteration in Bisection 12
 a: -0.00000  b:-0.00019

 -0.19627 = (-0.19645 + -0.19608)/2.0
 sum -  nocc_ = 0.00008615
 On Iteration in Bisection 13
 a: 0.00009  b:-0.00000

 -0.19636 = (-0.19645 + -0.19627)/2.0
 sum -  nocc_ = 0.00004073
 On Iteration in Bisection 14
 a: 0.00004  b:-0.00000

 -0.19640 = (-0.19645 + -0.19636)/2.0
 sum -  nocc_ = 0.00001803
 On Iteration in Bisection 15
 a: 0.00002  b:-0.00000

 -0.19643 = (-0.19645 + -0.19640)/2.0
 sum -  nocc_ = 0.00000667
 On Iteration in Bisection 16
 a: 0.00001  b:-0.00000

 -0.19644 = (-0.19645 + -0.19643)/2.0
 sum -  nocc_ = 0.00000100
 On Iteration in Bisection 17
 a: 0.00000  b:-0.00000

 -0.19645 = (-0.19645 + -0.19644)/2.0
 sum -  nocc_ = -0.00000184
 On Iteration in Bisection 18
 a: -0.00000  b:-0.00000

 -0.19644 = (-0.19645 + -0.19644)/2.0
 sum -  nocc_ = -0.00000042
 On Iteration in Bisection 19
 a: -0.00000  b:-0.00000

 -0.19644 = (-0.19644 + -0.19644)/2.0
 sum -  nocc_ = 0.00000029
 On Iteration in Bisection 20
 a: 0.00000  b:-0.00000

 -0.19644 = (-0.19644 + -0.19644)/2.0
 sum -  nocc_ = -0.00000007
 On Iteration in Bisection 21
 a: -0.00000  b:-0.00000

 -0.19644 = (-0.19644 + -0.19644)/2.0
 sum -  nocc_ = 0.00000011
 On Iteration in Bisection 22
 a: 0.00000  b:-0.00000

 -0.19644 = (-0.19644 + -0.19644)/2.0
 sum -  nocc_ = 0.00000002
 On Iteration in Bisection 23
 a: 0.00000  b:-0.00000

 -0.19644 = (-0.19644 + -0.19644)/2.0
 sum -  nocc_ = -0.00000002
 On Iteration in Bisection 24
 a: -0.00000  b:-0.00000

 -0.19644 = (-0.19644 + -0.19644)/2.0
 sum -  nocc_ = 0.00000000
 ef = -0.19644 sum = 1.00000 

 Iter: 1  T:    20000.000  val:-0.196442  sumni 0.00000
 ne = 1.0000

 iter:2  failiter:2  energy:     -1.499322121701  total:     -1.018251932074  error:     -0.248278316018
 In Bisection function HOMO = -0.501  LUMO =  2.579

 1.03895 = (-0.50144 + 2.57934)/2.0
 sum -  nocc_ = 3.02430829
 On Iteration in Bisection 0
 a: 3.02431  b:-0.49994

 0.26876 = (-0.50144 + 1.03895)/2.0
 sum -  nocc_ = 0.92964636
 On Iteration in Bisection 1
 a: 0.92965  b:-0.49994

 -0.11634 = (-0.50144 + 0.26876)/2.0
 sum -  nocc_ = 0.02300672
 On Iteration in Bisection 2
 a: 0.02301  b:-0.49994

 -0.30889 = (-0.50144 + -0.11634)/2.0
 sum -  nocc_ = -0.04439985
 On Iteration in Bisection 3
 a: -0.04440  b:-0.49994

 -0.21261 = (-0.30889 + -0.11634)/2.0
 sum -  nocc_ = -0.00470808
 On Iteration in Bisection 4
 a: -0.00471  b:-0.04440

 -0.16447 = (-0.21261 + -0.11634)/2.0
 sum -  nocc_ = 0.00712021
 On Iteration in Bisection 5
 a: 0.00712  b:-0.00471

 -0.18854 = (-0.21261 + -0.16447)/2.0
 sum -  nocc_ = 0.00112756
 On Iteration in Bisection 6
 a: 0.00113  b:-0.00471

 -0.20058 = (-0.21261 + -0.18854)/2.0
 sum -  nocc_ = -0.00175988
 On Iteration in Bisection 7
 a: -0.00176  b:-0.00471

 -0.19456 = (-0.20058 + -0.18854)/2.0
 sum -  nocc_ = -0.00031480
 On Iteration in Bisection 8
 a: -0.00031  b:-0.00176

 -0.19155 = (-0.19456 + -0.18854)/2.0
 sum -  nocc_ = 0.00040594
 On Iteration in Bisection 9
 a: 0.00041  b:-0.00031

 -0.19306 = (-0.19456 + -0.19155)/2.0
 sum -  nocc_ = 0.00004556
 On Iteration in Bisection 10
 a: 0.00005  b:-0.00031

 -0.19381 = (-0.19456 + -0.19306)/2.0
 sum -  nocc_ = -0.00013461
 On Iteration in Bisection 11
 a: -0.00013  b:-0.00031

 -0.19343 = (-0.19381 + -0.19306)/2.0
 sum -  nocc_ = -0.00004453
 On Iteration in Bisection 12
 a: -0.00004  b:-0.00013

 -0.19324 = (-0.19343 + -0.19306)/2.0
 sum -  nocc_ = 0.00000051
 On Iteration in Bisection 13
 a: 0.00000  b:-0.00004

 -0.19334 = (-0.19343 + -0.19324)/2.0
 sum -  nocc_ = -0.00002201
 On Iteration in Bisection 14
 a: -0.00002  b:-0.00004

 -0.19329 = (-0.19334 + -0.19324)/2.0
 sum -  nocc_ = -0.00001075
 On Iteration in Bisection 15
 a: -0.00001  b:-0.00002

 -0.19327 = (-0.19329 + -0.19324)/2.0
 sum -  nocc_ = -0.00000512
 On Iteration in Bisection 16
 a: -0.00001  b:-0.00001

 -0.19326 = (-0.19327 + -0.19324)/2.0
 sum -  nocc_ = -0.00000230
 On Iteration in Bisection 17
 a: -0.00000  b:-0.00001

 -0.19325 = (-0.19326 + -0.19324)/2.0
 sum -  nocc_ = -0.00000089
 On Iteration in Bisection 18
 a: -0.00000  b:-0.00000

 -0.19325 = (-0.19325 + -0.19324)/2.0
 sum -  nocc_ = -0.00000019
 On Iteration in Bisection 19
 a: -0.00000  b:-0.00000

 -0.19325 = (-0.19325 + -0.19324)/2.0
 sum -  nocc_ = 0.00000016
 On Iteration in Bisection 20
 a: 0.00000  b:-0.00000

 -0.19325 = (-0.19325 + -0.19325)/2.0
 sum -  nocc_ = -0.00000001
 On Iteration in Bisection 21
 a: -0.00000  b:-0.00000

 -0.19325 = (-0.19325 + -0.19325)/2.0
 sum -  nocc_ = 0.00000008
 On Iteration in Bisection 22
 a: 0.00000  b:-0.00000

 -0.19325 = (-0.19325 + -0.19325)/2.0
 sum -  nocc_ = 0.00000003
 On Iteration in Bisection 23
 a: 0.00000  b:-0.00000

 -0.19325 = (-0.19325 + -0.19325)/2.0
 sum -  nocc_ = 0.00000001
 ef = -0.19325 sum = 1.00000 

 Iter: 2  T:    20000.000  val:-0.193247  sumni 0.00000
 ne = 1.0000

 iter:3  failiter:3  energy:     -1.551305071186  total:     -1.070234881559  error:     -0.051982949485
 In Bisection function HOMO = -0.503  LUMO =  2.582

 1.03973 = (-0.50275 + 2.58221)/2.0
 sum -  nocc_ = 3.02255332
 On Iteration in Bisection 0
 a: 3.02255  b:-0.49995

 0.26849 = (-0.50275 + 1.03973)/2.0
 sum -  nocc_ = 0.92393823
 On Iteration in Bisection 1
 a: 0.92394  b:-0.49995

 -0.11713 = (-0.50275 + 0.26849)/2.0
 sum -  nocc_ = 0.02119271
 On Iteration in Bisection 2
 a: 0.02119  b:-0.49995

 -0.30994 = (-0.50275 + -0.11713)/2.0
 sum -  nocc_ = -0.04431704
 On Iteration in Bisection 3
 a: -0.04432  b:-0.49995

 -0.21354 = (-0.30994 + -0.11713)/2.0
 sum -  nocc_ = -0.00507206
 On Iteration in Bisection 4
 a: -0.00507  b:-0.04432

 -0.16534 = (-0.21354 + -0.11713)/2.0
 sum -  nocc_ = 0.00626404
 On Iteration in Bisection 5
 a: 0.00626  b:-0.00507

 -0.18944 = (-0.21354 + -0.16534)/2.0
 sum -  nocc_ = 0.00055701
 On Iteration in Bisection 6
 a: 0.00056  b:-0.00507

 -0.20149 = (-0.21354 + -0.18944)/2.0
 sum -  nocc_ = -0.00221904
 On Iteration in Bisection 7
 a: -0.00222  b:-0.00507

 -0.19546 = (-0.20149 + -0.18944)/2.0
 sum -  nocc_ = -0.00082743
 On Iteration in Bisection 8
 a: -0.00083  b:-0.00222

 -0.19245 = (-0.19546 + -0.18944)/2.0
 sum -  nocc_ = -0.00013507
 On Iteration in Bisection 9
 a: -0.00014  b:-0.00083

 -0.19094 = (-0.19245 + -0.18944)/2.0
 sum -  nocc_ = 0.00021091
 On Iteration in Bisection 10
 a: 0.00021  b:-0.00014

 -0.19170 = (-0.19245 + -0.19094)/2.0
 sum -  nocc_ = 0.00003792
 On Iteration in Bisection 11
 a: 0.00004  b:-0.00014

 -0.19207 = (-0.19245 + -0.19170)/2.0
 sum -  nocc_ = -0.00004857
 On Iteration in Bisection 12
 a: -0.00005  b:-0.00014

 -0.19188 = (-0.19207 + -0.19170)/2.0
 sum -  nocc_ = -0.00000533
 On Iteration in Bisection 13
 a: -0.00001  b:-0.00005

 -0.19179 = (-0.19188 + -0.19170)/2.0
 sum -  nocc_ = 0.00001630
 On Iteration in Bisection 14
 a: 0.00002  b:-0.00001

 -0.19184 = (-0.19188 + -0.19179)/2.0
 sum -  nocc_ = 0.00000549
 On Iteration in Bisection 15
 a: 0.00001  b:-0.00001

 -0.19186 = (-0.19188 + -0.19184)/2.0
 sum -  nocc_ = 0.00000008
 On Iteration in Bisection 16
 a: 0.00000  b:-0.00001

 -0.19187 = (-0.19188 + -0.19186)/2.0
 sum -  nocc_ = -0.00000262
 On Iteration in Bisection 17
 a: -0.00000  b:-0.00001

 -0.19187 = (-0.19187 + -0.19186)/2.0
 sum -  nocc_ = -0.00000127
 On Iteration in Bisection 18
 a: -0.00000  b:-0.00000

 -0.19186 = (-0.19187 + -0.19186)/2.0
 sum -  nocc_ = -0.00000060
 On Iteration in Bisection 19
 a: -0.00000  b:-0.00000

 -0.19186 = (-0.19186 + -0.19186)/2.0
 sum -  nocc_ = -0.00000026
 On Iteration in Bisection 20
 a: -0.00000  b:-0.00000

 -0.19186 = (-0.19186 + -0.19186)/2.0
 sum -  nocc_ = -0.00000009
 On Iteration in Bisection 21
 a: -0.00000  b:-0.00000

 -0.19186 = (-0.19186 + -0.19186)/2.0
 sum -  nocc_ = -0.00000000
 ef = -0.19186 sum = 1.00000 

 Iter: 3  T:    20000.000  val:-0.191861  sumni 0.00000
 ne = 1.0000

 iter:4  failiter:4  energy:     -1.553018574671  total:     -1.071948385044  error:     -0.001713503485
 In Bisection function HOMO = -0.503  LUMO =  2.582

 1.03974 = (-0.50282 + 2.58229)/2.0
 sum -  nocc_ = 3.02248056
 On Iteration in Bisection 0
 a: 3.02248  b:-0.49995

 0.26846 = (-0.50282 + 1.03974)/2.0
 sum -  nocc_ = 0.92369221
 On Iteration in Bisection 1
 a: 0.92369  b:-0.49995

 -0.11718 = (-0.50282 + 0.26846)/2.0
 sum -  nocc_ = 0.02112115
 On Iteration in Bisection 2
 a: 0.02112  b:-0.49995

 -0.31000 = (-0.50282 + -0.11718)/2.0
 sum -  nocc_ = -0.04431435
 On Iteration in Bisection 3
 a: -0.04431  b:-0.49995

 -0.21359 = (-0.31000 + -0.11718)/2.0
 sum -  nocc_ = -0.00508653
 On Iteration in Bisection 4
 a: -0.00509  b:-0.04431

 -0.16538 = (-0.21359 + -0.11718)/2.0
 sum -  nocc_ = 0.00623029
 On Iteration in Bisection 5
 a: 0.00623  b:-0.00509

 -0.18949 = (-0.21359 + -0.16538)/2.0
 sum -  nocc_ = 0.00053447
 On Iteration in Bisection 6
 a: 0.00053  b:-0.00509

 -0.20154 = (-0.21359 + -0.18949)/2.0
 sum -  nocc_ = -0.00223722
 On Iteration in Bisection 7
 a: -0.00224  b:-0.00509

 -0.19551 = (-0.20154 + -0.18949)/2.0
 sum -  nocc_ = -0.00084771
 On Iteration in Bisection 8
 a: -0.00085  b:-0.00224

 -0.19250 = (-0.19551 + -0.18949)/2.0
 sum -  nocc_ = -0.00015645
 On Iteration in Bisection 9
 a: -0.00016  b:-0.00085

 -0.19099 = (-0.19250 + -0.18949)/2.0
 sum -  nocc_ = 0.00018896
 On Iteration in Bisection 10
 a: 0.00019  b:-0.00016

 -0.19175 = (-0.19250 + -0.19099)/2.0
 sum -  nocc_ = 0.00001625
 On Iteration in Bisection 11
 a: 0.00002  b:-0.00016

 -0.19212 = (-0.19250 + -0.19175)/2.0
 sum -  nocc_ = -0.00007010
 On Iteration in Bisection 12
 a: -0.00007  b:-0.00016

 -0.19193 = (-0.19212 + -0.19175)/2.0
 sum -  nocc_ = -0.00002692
 On Iteration in Bisection 13
 a: -0.00003  b:-0.00007

 -0.19184 = (-0.19193 + -0.19175)/2.0
 sum -  nocc_ = -0.00000533
 On Iteration in Bisection 14
 a: -0.00001  b:-0.00003

 -0.19179 = (-0.19184 + -0.19175)/2.0
 sum -  nocc_ = 0.00000546
 On Iteration in Bisection 15
 a: 0.00001  b:-0.00001

 -0.19182 = (-0.19184 + -0.19179)/2.0
 sum -  nocc_ = 0.00000006
 On Iteration in Bisection 16
 a: 0.00000  b:-0.00001

 -0.19183 = (-0.19184 + -0.19182)/2.0
 sum -  nocc_ = -0.00000264
 On Iteration in Bisection 17
 a: -0.00000  b:-0.00001

 -0.19182 = (-0.19183 + -0.19182)/2.0
 sum -  nocc_ = -0.00000129
 On Iteration in Bisection 18
 a: -0.00000  b:-0.00000

 -0.19182 = (-0.19182 + -0.19182)/2.0
 sum -  nocc_ = -0.00000061
 On Iteration in Bisection 19
 a: -0.00000  b:-0.00000

 -0.19182 = (-0.19182 + -0.19182)/2.0
 sum -  nocc_ = -0.00000028
 On Iteration in Bisection 20
 a: -0.00000  b:-0.00000

 -0.19182 = (-0.19182 + -0.19182)/2.0
 sum -  nocc_ = -0.00000011
 On Iteration in Bisection 21
 a: -0.00000  b:-0.00000

 -0.19182 = (-0.19182 + -0.19182)/2.0
 sum -  nocc_ = -0.00000002
 On Iteration in Bisection 22
 a: -0.00000  b:-0.00000

 -0.19182 = (-0.19182 + -0.19182)/2.0
 sum -  nocc_ = 0.00000002
 On Iteration in Bisection 23
 a: 0.00000  b:-0.00000

 -0.19182 = (-0.19182 + -0.19182)/2.0
 sum -  nocc_ = -0.00000000
 ef = -0.19182 sum = 1.00000 

 Iter: 4  T:    20000.000  val:-0.191816  sumni 0.00000
 ne = 1.0000

 iter:5  failiter:5  energy:     -1.553095637511  total:     -1.072025447883  error:     -0.000077062840
 In Bisection function HOMO = -0.503  LUMO =  2.582

 1.03973 = (-0.50283 + 2.58228)/2.0
 sum -  nocc_ = 3.02247708
 On Iteration in Bisection 0
 a: 3.02248  b:-0.49995

 0.26845 = (-0.50283 + 1.03973)/2.0
 sum -  nocc_ = 0.92367649
 On Iteration in Bisection 1
 a: 0.92368  b:-0.49995

 -0.11719 = (-0.50283 + 0.26845)/2.0
 sum -  nocc_ = 0.02111720
 On Iteration in Bisection 2
 a: 0.02112  b:-0.49995

 -0.31001 = (-0.50283 + -0.11719)/2.0
 sum -  nocc_ = -0.04431461
 On Iteration in Bisection 3
 a: -0.04431  b:-0.49995

 -0.21360 = (-0.31001 + -0.11719)/2.0
 sum -  nocc_ = -0.00508744
 On Iteration in Bisection 4
 a: -0.00509  b:-0.04431

 -0.16539 = (-0.21360 + -0.11719)/2.0
 sum -  nocc_ = 0.00622840
 On Iteration in Bisection 5
 a: 0.00623  b:-0.00509

 -0.18950 = (-0.21360 + -0.16539)/2.0
 sum -  nocc_ = 0.00053316
 On Iteration in Bisection 6
 a: 0.00053  b:-0.00509

 -0.20155 = (-0.21360 + -0.18950)/2.0
 sum -  nocc_ = -0.00223831
 On Iteration in Bisection 7
 a: -0.00224  b:-0.00509

 -0.19552 = (-0.20155 + -0.18950)/2.0
 sum -  nocc_ = -0.00084890
 On Iteration in Bisection 8
 a: -0.00085  b:-0.00224

 -0.19251 = (-0.19552 + -0.18950)/2.0
 sum -  nocc_ = -0.00015770
 On Iteration in Bisection 9
 a: -0.00016  b:-0.00085

 -0.19100 = (-0.19251 + -0.18950)/2.0
 sum -  nocc_ = 0.00018768
 On Iteration in Bisection 10
 a: 0.00019  b:-0.00016

 -0.19176 = (-0.19251 + -0.19100)/2.0
 sum -  nocc_ = 0.00001499
 On Iteration in Bisection 11
 a: 0.00001  b:-0.00016

 -0.19213 = (-0.19251 + -0.19176)/2.0
 sum -  nocc_ = -0.00007136
 On Iteration in Bisection 12
 a: -0.00007  b:-0.00016

 -0.19194 = (-0.19213 + -0.19176)/2.0
 sum -  nocc_ = -0.00002819
 On Iteration in Bisection 13
 a: -0.00003  b:-0.00007

 -0.19185 = (-0.19194 + -0.19176)/2.0
 sum -  nocc_ = -0.00000660
 On Iteration in Bisection 14
 a: -0.00001  b:-0.00003

 -0.19180 = (-0.19185 + -0.19176)/2.0
 sum -  nocc_ = 0.00000419
 On Iteration in Bisection 15
 a: 0.00000  b:-0.00001

 -0.19183 = (-0.19185 + -0.19180)/2.0
 sum -  nocc_ = -0.00000120
 On Iteration in Bisection 16
 a: -0.00000  b:-0.00001

 -0.19181 = (-0.19183 + -0.19180)/2.0
 sum -  nocc_ = 0.00000149
 On Iteration in Bisection 17
 a: 0.00000  b:-0.00000

 -0.19182 = (-0.19183 + -0.19181)/2.0
 sum -  nocc_ = 0.00000015
 On Iteration in Bisection 18
 a: 0.00000  b:-0.00000

 -0.19182 = (-0.19183 + -0.19182)/2.0
 sum -  nocc_ = -0.00000053
 On Iteration in Bisection 19
 a: -0.00000  b:-0.00000

 -0.19182 = (-0.19182 + -0.19182)/2.0
 sum -  nocc_ = -0.00000019
 On Iteration in Bisection 20
 a: -0.00000  b:-0.00000

 -0.19182 = (-0.19182 + -0.19182)/2.0
 sum -  nocc_ = -0.00000002
 On Iteration in Bisection 21
 a: -0.00000  b:-0.00000

 -0.19182 = (-0.19182 + -0.19182)/2.0
 sum -  nocc_ = 0.00000006
 On Iteration in Bisection 22
 a: 0.00000  b:-0.00000

 -0.19182 = (-0.19182 + -0.19182)/2.0
 sum -  nocc_ = 0.00000002
 On Iteration in Bisection 23
 a: 0.00000  b:-0.00000

 -0.19182 = (-0.19182 + -0.19182)/2.0
 sum -  nocc_ = -0.00000000
 ef = -0.19182 sum = 1.00000 

 Iter: 5  T:    20000.000  val:-0.191821  sumni 0.00000
 ne = 1.0000

 iter:6  failiter:6  energy:     -1.553105172674  total:     -1.072034983046  error:     -0.000009535163
 In Bisection function HOMO = -0.503  LUMO =  2.582

 1.03972 = (-0.50283 + 2.58228)/2.0
 sum -  nocc_ = 3.02247692
 On Iteration in Bisection 0
 a: 3.02248  b:-0.49995

 0.26845 = (-0.50283 + 1.03972)/2.0
 sum -  nocc_ = 0.92367467
 On Iteration in Bisection 1
 a: 0.92367  b:-0.49995

 -0.11719 = (-0.50283 + 0.26845)/2.0
 sum -  nocc_ = 0.02111683
 On Iteration in Bisection 2
 a: 0.02112  b:-0.49995

 -0.31001 = (-0.50283 + -0.11719)/2.0
 sum -  nocc_ = -0.04431471
 On Iteration in Bisection 3
 a: -0.04431  b:-0.49995

 -0.21360 = (-0.31001 + -0.11719)/2.0
 sum -  nocc_ = -0.00508755
 On Iteration in Bisection 4
 a: -0.00509  b:-0.04431

 -0.16540 = (-0.21360 + -0.11719)/2.0
 sum -  nocc_ = 0.00622821
 On Iteration in Bisection 5
 a: 0.00623  b:-0.00509

 -0.18950 = (-0.21360 + -0.16540)/2.0
 sum -  nocc_ = 0.00053302
 On Iteration in Bisection 6
 a: 0.00053  b:-0.00509

 -0.20155 = (-0.21360 + -0.18950)/2.0
 sum -  nocc_ = -0.00223843
 On Iteration in Bisection 7
 a: -0.00224  b:-0.00509

 -0.19552 = (-0.20155 + -0.18950)/2.0
 sum -  nocc_ = -0.00084903
 On Iteration in Bisection 8
 a: -0.00085  b:-0.00224

 -0.19251 = (-0.19552 + -0.18950)/2.0
 sum -  nocc_ = -0.00015783
 On Iteration in Bisection 9
 a: -0.00016  b:-0.00085

 -0.19101 = (-0.19251 + -0.18950)/2.0
 sum -  nocc_ = 0.00018754
 On Iteration in Bisection 10
 a: 0.00019  b:-0.00016

 -0.19176 = (-0.19251 + -0.19101)/2.0
 sum -  nocc_ = 0.00001485
 On Iteration in Bisection 11
 a: 0.00001  b:-0.00016

 -0.19213 = (-0.19251 + -0.19176)/2.0
 sum -  nocc_ = -0.00007149
 On Iteration in Bisection 12
 a: -0.00007  b:-0.00016

 -0.19195 = (-0.19213 + -0.19176)/2.0
 sum -  nocc_ = -0.00002832
 On Iteration in Bisection 13
 a: -0.00003  b:-0.00007

 -0.19185 = (-0.19195 + -0.19176)/2.0
 sum -  nocc_ = -0.00000673
 On Iteration in Bisection 14
 a: -0.00001  b:-0.00003

 -0.19181 = (-0.19185 + -0.19176)/2.0
 sum -  nocc_ = 0.00000406
 On Iteration in Bisection 15
 a: 0.00000  b:-0.00001

 -0.19183 = (-0.19185 + -0.19181)/2.0
 sum -  nocc_ = -0.00000134
 On Iteration in Bisection 16
 a: -0.00000  b:-0.00001

 -0.19182 = (-0.19183 + -0.19181)/2.0
 sum -  nocc_ = 0.00000136
 On Iteration in Bisection 17
 a: 0.00000  b:-0.00000

 -0.19182 = (-0.19183 + -0.19182)/2.0
 sum -  nocc_ = 0.00000001
 On Iteration in Bisection 18
 a: 0.00000  b:-0.00000

 -0.19183 = (-0.19183 + -0.19182)/2.0
 sum -  nocc_ = -0.00000066
 On Iteration in Bisection 19
 a: -0.00000  b:-0.00000

 -0.19182 = (-0.19183 + -0.19182)/2.0
 sum -  nocc_ = -0.00000032
 On Iteration in Bisection 20
 a: -0.00000  b:-0.00000

 -0.19182 = (-0.19182 + -0.19182)/2.0
 sum -  nocc_ = -0.00000016
 On Iteration in Bisection 21
 a: -0.00000  b:-0.00000

 -0.19182 = (-0.19182 + -0.19182)/2.0
 sum -  nocc_ = -0.00000007
 On Iteration in Bisection 22
 a: -0.00000  b:-0.00000

 -0.19182 = (-0.19182 + -0.19182)/2.0
 sum -  nocc_ = -0.00000003
 On Iteration in Bisection 23
 a: -0.00000  b:-0.00000

 -0.19182 = (-0.19182 + -0.19182)/2.0
 sum -  nocc_ = -0.00000001
 ef = -0.19182 sum = 1.00000 

 Iter: 6  T:    20000.000  val:-0.191823  sumni 0.00000
 ne = 1.0000

 iter:7  failiter:7  energy:     -1.553107037479  total:     -1.072036847852  error:     -0.000001864806
 In Bisection function HOMO = -0.503  LUMO =  2.582

 1.03972 = (-0.50283 + 2.58228)/2.0
 sum -  nocc_ = 3.02247693
 On Iteration in Bisection 0
 a: 3.02248  b:-0.49995

 0.26845 = (-0.50283 + 1.03972)/2.0
 sum -  nocc_ = 0.92367437
 On Iteration in Bisection 1
 a: 0.92367  b:-0.49995

 -0.11719 = (-0.50283 + 0.26845)/2.0
 sum -  nocc_ = 0.02111678
 On Iteration in Bisection 2
 a: 0.02112  b:-0.49995

 -0.31001 = (-0.50283 + -0.11719)/2.0
 sum -  nocc_ = -0.04431473
 On Iteration in Bisection 3
 a: -0.04431  b:-0.49995

 -0.21360 = (-0.31001 + -0.11719)/2.0
 sum -  nocc_ = -0.00508757
 On Iteration in Bisection 4
 a: -0.00509  b:-0.04431

 -0.16540 = (-0.21360 + -0.11719)/2.0
 sum -  nocc_ = 0.00622818
 On Iteration in Bisection 5
 a: 0.00623  b:-0.00509

 -0.18950 = (-0.21360 + -0.16540)/2.0
 sum -  nocc_ = 0.00053300
 On Iteration in Bisection 6
 a: 0.00053  b:-0.00509

 -0.20155 = (-0.21360 + -0.18950)/2.0
 sum -  nocc_ = -0.00223845
 On Iteration in Bisection 7
 a: -0.00224  b:-0.00509

 -0.19552 = (-0.20155 + -0.18950)/2.0
 sum -  nocc_ = -0.00084905
 On Iteration in Bisection 8
 a: -0.00085  b:-0.00224

 -0.19251 = (-0.19552 + -0.18950)/2.0
 sum -  nocc_ = -0.00015785
 On Iteration in Bisection 9
 a: -0.00016  b:-0.00085

 -0.19101 = (-0.19251 + -0.18950)/2.0
 sum -  nocc_ = 0.00018752
 On Iteration in Bisection 10
 a: 0.00019  b:-0.00016

 -0.19176 = (-0.19251 + -0.19101)/2.0
 sum -  nocc_ = 0.00001483
 On Iteration in Bisection 11
 a: 0.00001  b:-0.00016

 -0.19214 = (-0.19251 + -0.19176)/2.0
 sum -  nocc_ = -0.00007151
 On Iteration in Bisection 12
 a: -0.00007  b:-0.00016

 -0.19195 = (-0.19214 + -0.19176)/2.0
 sum -  nocc_ = -0.00002834
 On Iteration in Bisection 13
 a: -0.00003  b:-0.00007

 -0.19185 = (-0.19195 + -0.19176)/2.0
 sum -  nocc_ = -0.00000675
 On Iteration in Bisection 14
 a: -0.00001  b:-0.00003

 -0.19181 = (-0.19185 + -0.19176)/2.0
 sum -  nocc_ = 0.00000404
 On Iteration in Bisection 15
 a: 0.00000  b:-0.00001

 -0.19183 = (-0.19185 + -0.19181)/2.0
 sum -  nocc_ = -0.00000136
 On Iteration in Bisection 16
 a: -0.00000  b:-0.00001

 -0.19182 = (-0.19183 + -0.19181)/2.0
 sum -  nocc_ = 0.00000134
 On Iteration in Bisection 17
 a: 0.00000  b:-0.00000

 -0.19182 = (-0.19183 + -0.19182)/2.0
 sum -  nocc_ = -0.00000001
 ef = -0.19182 sum = 1.00000 

 Iter: 7  T:    20000.000  val:-0.191823  sumni 0.00000
 ne = 1.0000

 iter:8  failiter:8  energy:     -1.553107421760  total:     -1.072037232133  error:     -0.000000384281
 In Bisection function HOMO = -0.503  LUMO =  2.582

 1.03972 = (-0.50283 + 2.58228)/2.0
 sum -  nocc_ = 3.02247693
 On Iteration in Bisection 0
 a: 3.02248  b:-0.49995

 0.26845 = (-0.50283 + 1.03972)/2.0
 sum -  nocc_ = 0.92367431
 On Iteration in Bisection 1
 a: 0.92367  b:-0.49995

 -0.11719 = (-0.50283 + 0.26845)/2.0
 sum -  nocc_ = 0.02111677
 On Iteration in Bisection 2
 a: 0.02112  b:-0.49995

 -0.31001 = (-0.50283 + -0.11719)/2.0
 sum -  nocc_ = -0.04431473
 On Iteration in Bisection 3
 a: -0.04431  b:-0.49995

 -0.21360 = (-0.31001 + -0.11719)/2.0
 sum -  nocc_ = -0.00508757
 On Iteration in Bisection 4
 a: -0.00509  b:-0.04431

 -0.16540 = (-0.21360 + -0.11719)/2.0
 sum -  nocc_ = 0.00622818
 On Iteration in Bisection 5
 a: 0.00623  b:-0.00509

 -0.18950 = (-0.21360 + -0.16540)/2.0
 sum -  nocc_ = 0.00053300
 On Iteration in Bisection 6
 a: 0.00053  b:-0.00509

 -0.20155 = (-0.21360 + -0.18950)/2.0
 sum -  nocc_ = -0.00223845
 On Iteration in Bisection 7
 a: -0.00224  b:-0.00509

 -0.19552 = (-0.20155 + -0.18950)/2.0
 sum -  nocc_ = -0.00084905
 On Iteration in Bisection 8
 a: -0.00085  b:-0.00224

 -0.19251 = (-0.19552 + -0.18950)/2.0
 sum -  nocc_ = -0.00015786
 On Iteration in Bisection 9
 a: -0.00016  b:-0.00085

 -0.19101 = (-0.19251 + -0.18950)/2.0
 sum -  nocc_ = 0.00018752
 On Iteration in Bisection 10
 a: 0.00019  b:-0.00016

 -0.19176 = (-0.19251 + -0.19101)/2.0
 sum -  nocc_ = 0.00001483
 On Iteration in Bisection 11
 a: 0.00001  b:-0.00016

 -0.19214 = (-0.19251 + -0.19176)/2.0
 sum -  nocc_ = -0.00007151
 On Iteration in Bisection 12
 a: -0.00007  b:-0.00016

 -0.19195 = (-0.19214 + -0.19176)/2.0
 sum -  nocc_ = -0.00002834
 On Iteration in Bisection 13
 a: -0.00003  b:-0.00007

 -0.19185 = (-0.19195 + -0.19176)/2.0
 sum -  nocc_ = -0.00000676
 On Iteration in Bisection 14
 a: -0.00001  b:-0.00003

 -0.19181 = (-0.19185 + -0.19176)/2.0
 sum -  nocc_ = 0.00000404
 On Iteration in Bisection 15
 a: 0.00000  b:-0.00001

 -0.19183 = (-0.19185 + -0.19181)/2.0
 sum -  nocc_ = -0.00000136
 On Iteration in Bisection 16
 a: -0.00000  b:-0.00001

 -0.19182 = (-0.19183 + -0.19181)/2.0
 sum -  nocc_ = 0.00000134
 On Iteration in Bisection 17
 a: 0.00000  b:-0.00000

 -0.19182 = (-0.19183 + -0.19182)/2.0
 sum -  nocc_ = -0.00000001
 On Iteration in Bisection 18
 a: -0.00000  b:-0.00000

 -0.19182 = (-0.19182 + -0.19182)/2.0
 sum -  nocc_ = 0.00000066
 On Iteration in Bisection 19
 a: 0.00000  b:-0.00000

 -0.19182 = (-0.19182 + -0.19182)/2.0
 sum -  nocc_ = 0.00000033
 On Iteration in Bisection 20
 a: 0.00000  b:-0.00000

 -0.19182 = (-0.19182 + -0.19182)/2.0
 sum -  nocc_ = 0.00000016
 On Iteration in Bisection 21
 a: 0.00000  b:-0.00000

 -0.19182 = (-0.19182 + -0.19182)/2.0
 sum -  nocc_ = 0.00000007
 On Iteration in Bisection 22
 a: 0.00000  b:-0.00000

 -0.19182 = (-0.19182 + -0.19182)/2.0
 sum -  nocc_ = 0.00000003
 On Iteration in Bisection 23
 a: 0.00000  b:-0.00000

 -0.19182 = (-0.19182 + -0.19182)/2.0
 sum -  nocc_ = 0.00000001
 On Iteration in Bisection 24
 a: 0.00000  b:-0.00000

 -0.19182 = (-0.19182 + -0.19182)/2.0
 sum -  nocc_ = -0.00000000
 ef = -0.19182 sum = 1.00000 

 Iter: 8  T:    20000.000  val:-0.191824  sumni 0.00000
 ne = 1.0000

 iter:9  failiter:9  energy:     -1.553107503925  total:     -1.072037314298  error:     -0.000000082165
 In Bisection function HOMO = -0.503  LUMO =  2.582

 1.03972 = (-0.50283 + 2.58228)/2.0
 sum -  nocc_ = 3.02247693
 On Iteration in Bisection 0
 a: 3.02248  b:-0.49995

 0.26845 = (-0.50283 + 1.03972)/2.0
 sum -  nocc_ = 0.92367430
 On Iteration in Bisection 1
 a: 0.92367  b:-0.49995

 -0.11719 = (-0.50283 + 0.26845)/2.0
 sum -  nocc_ = 0.02111677
 On Iteration in Bisection 2
 a: 0.02112  b:-0.49995

 -0.31001 = (-0.50283 + -0.11719)/2.0
 sum -  nocc_ = -0.04431473
 On Iteration in Bisection 3
 a: -0.04431  b:-0.49995

 -0.21360 = (-0.31001 + -0.11719)/2.0
 sum -  nocc_ = -0.00508757
 On Iteration in Bisection 4
 a: -0.00509  b:-0.04431

 -0.16540 = (-0.21360 + -0.11719)/2.0
 sum -  nocc_ = 0.00622818
 On Iteration in Bisection 5
 a: 0.00623  b:-0.00509

 -0.18950 = (-0.21360 + -0.16540)/2.0
 sum -  nocc_ = 0.00053300
 On Iteration in Bisection 6
 a: 0.00053  b:-0.00509

 -0.20155 = (-0.21360 + -0.18950)/2.0
 sum -  nocc_ = -0.00223846
 On Iteration in Bisection 7
 a: -0.00224  b:-0.00509

 -0.19552 = (-0.20155 + -0.18950)/2.0
 sum -  nocc_ = -0.00084905
 On Iteration in Bisection 8
 a: -0.00085  b:-0.00224

 -0.19251 = (-0.19552 + -0.18950)/2.0
 sum -  nocc_ = -0.00015786
 On Iteration in Bisection 9
 a: -0.00016  b:-0.00085

 -0.19101 = (-0.19251 + -0.18950)/2.0
 sum -  nocc_ = 0.00018752
 On Iteration in Bisection 10
 a: 0.00019  b:-0.00016

 -0.19176 = (-0.19251 + -0.19101)/2.0
 sum -  nocc_ = 0.00001483
 On Iteration in Bisection 11
 a: 0.00001  b:-0.00016

 -0.19214 = (-0.19251 + -0.19176)/2.0
 sum -  nocc_ = -0.00007151
 On Iteration in Bisection 12
 a: -0.00007  b:-0.00016

 -0.19195 = (-0.19214 + -0.19176)/2.0
 sum -  nocc_ = -0.00002834
 On Iteration in Bisection 13
 a: -0.00003  b:-0.00007

 -0.19185 = (-0.19195 + -0.19176)/2.0
 sum -  nocc_ = -0.00000676
 On Iteration in Bisection 14
 a: -0.00001  b:-0.00003

 -0.19181 = (-0.19185 + -0.19176)/2.0
 sum -  nocc_ = 0.00000404
 On Iteration in Bisection 15
 a: 0.00000  b:-0.00001

 -0.19183 = (-0.19185 + -0.19181)/2.0
 sum -  nocc_ = -0.00000136
 On Iteration in Bisection 16
 a: -0.00000  b:-0.00001

 -0.19182 = (-0.19183 + -0.19181)/2.0
 sum -  nocc_ = 0.00000134
 On Iteration in Bisection 17
 a: 0.00000  b:-0.00000

 -0.19182 = (-0.19183 + -0.19182)/2.0
 sum -  nocc_ = -0.00000001
 On Iteration in Bisection 18
 a: -0.00000  b:-0.00000

 -0.19182 = (-0.19182 + -0.19182)/2.0
 sum -  nocc_ = 0.00000066
 On Iteration in Bisection 19
 a: 0.00000  b:-0.00000

 -0.19182 = (-0.19182 + -0.19182)/2.0
 sum -  nocc_ = 0.00000033
 On Iteration in Bisection 20
 a: 0.00000  b:-0.00000

 -0.19182 = (-0.19182 + -0.19182)/2.0
 sum -  nocc_ = 0.00000016
 On Iteration in Bisection 21
 a: 0.00000  b:-0.00000

 -0.19182 = (-0.19182 + -0.19182)/2.0
 sum -  nocc_ = 0.00000007
 On Iteration in Bisection 22
 a: 0.00000  b:-0.00000

 -0.19182 = (-0.19182 + -0.19182)/2.0
 sum -  nocc_ = 0.00000003
 On Iteration in Bisection 23
 a: 0.00000  b:-0.00000

 -0.19182 = (-0.19182 + -0.19182)/2.0
 sum -  nocc_ = 0.00000001
 ef = -0.19182 sum = 1.00000 

 Iter: 9  T:    20000.000  val:-0.191824  sumni 0.00000
 ne = 1.0000

 iter:10  failiter:10  energy:     -1.553107524297  total:     -1.072037334670  error:     -0.000000020372
 In Bisection function HOMO = -0.503  LUMO =  2.582

 1.03972 = (-0.50283 + 2.58228)/2.0
 sum -  nocc_ = 3.02247693
 On Iteration in Bisection 0
 a: 3.02248  b:-0.49995

 0.26845 = (-0.50283 + 1.03972)/2.0
 sum -  nocc_ = 0.92367430
 On Iteration in Bisection 1
 a: 0.92367  b:-0.49995

 -0.11719 = (-0.50283 + 0.26845)/2.0
 sum -  nocc_ = 0.02111677
 On Iteration in Bisection 2
 a: 0.02112  b:-0.49995

 -0.31001 = (-0.50283 + -0.11719)/2.0
 sum -  nocc_ = -0.04431473
 On Iteration in Bisection 3
 a: -0.04431  b:-0.49995

 -0.21360 = (-0.31001 + -0.11719)/2.0
 sum -  nocc_ = -0.00508757
 On Iteration in Bisection 4
 a: -0.00509  b:-0.04431

 -0.16540 = (-0.21360 + -0.11719)/2.0
 sum -  nocc_ = 0.00622818
 On Iteration in Bisection 5
 a: 0.00623  b:-0.00509

 -0.18950 = (-0.21360 + -0.16540)/2.0
 sum -  nocc_ = 0.00053300
 On Iteration in Bisection 6
 a: 0.00053  b:-0.00509

 -0.20155 = (-0.21360 + -0.18950)/2.0
 sum -  nocc_ = -0.00223846
 On Iteration in Bisection 7
 a: -0.00224  b:-0.00509

 -0.19552 = (-0.20155 + -0.18950)/2.0
 sum -  nocc_ = -0.00084905
 On Iteration in Bisection 8
 a: -0.00085  b:-0.00224

 -0.19251 = (-0.19552 + -0.18950)/2.0
 sum -  nocc_ = -0.00015786
 On Iteration in Bisection 9
 a: -0.00016  b:-0.00085

 -0.19101 = (-0.19251 + -0.18950)/2.0
 sum -  nocc_ = 0.00018752
 On Iteration in Bisection 10
 a: 0.00019  b:-0.00016

 -0.19176 = (-0.19251 + -0.19101)/2.0
 sum -  nocc_ = 0.00001483
 On Iteration in Bisection 11
 a: 0.00001  b:-0.00016

 -0.19214 = (-0.19251 + -0.19176)/2.0
 sum -  nocc_ = -0.00007151
 On Iteration in Bisection 12
 a: -0.00007  b:-0.00016

 -0.19195 = (-0.19214 + -0.19176)/2.0
 sum -  nocc_ = -0.00002834
 On Iteration in Bisection 13
 a: -0.00003  b:-0.00007

 -0.19185 = (-0.19195 + -0.19176)/2.0
 sum -  nocc_ = -0.00000676
 On Iteration in Bisection 14
 a: -0.00001  b:-0.00003

 -0.19181 = (-0.19185 + -0.19176)/2.0
 sum -  nocc_ = 0.00000404
 On Iteration in Bisection 15
 a: 0.00000  b:-0.00001

 -0.19183 = (-0.19185 + -0.19181)/2.0
 sum -  nocc_ = -0.00000136
 On Iteration in Bisection 16
 a: -0.00000  b:-0.00001

 -0.19182 = (-0.19183 + -0.19181)/2.0
 sum -  nocc_ = 0.00000134
 On Iteration in Bisection 17
 a: 0.00000  b:-0.00000

 -0.19182 = (-0.19183 + -0.19182)/2.0
 sum -  nocc_ = -0.00000001
 On Iteration in Bisection 18
 a: -0.00000  b:-0.00000

 -0.19182 = (-0.19182 + -0.19182)/2.0
 sum -  nocc_ = 0.00000066
 On Iteration in Bisection 19
 a: 0.00000  b:-0.00000

 -0.19182 = (-0.19182 + -0.19182)/2.0
 sum -  nocc_ = 0.00000033
 On Iteration in Bisection 20
 a: 0.00000  b:-0.00000

 -0.19182 = (-0.19182 + -0.19182)/2.0
 sum -  nocc_ = 0.00000016
 On Iteration in Bisection 21
 a: 0.00000  b:-0.00000

 -0.19182 = (-0.19182 + -0.19182)/2.0
 sum -  nocc_ = 0.00000007
 On Iteration in Bisection 22
 a: 0.00000  b:-0.00000

 -0.19182 = (-0.19182 + -0.19182)/2.0
 sum -  nocc_ = 0.00000003
 On Iteration in Bisection 23
 a: 0.00000  b:-0.00000

 -0.19182 = (-0.19182 + -0.19182)/2.0
 sum -  nocc_ = 0.00000001
 ef = -0.19182 sum = 1.00000 

 Iter: 10  T:    20000.000  val:-0.191824  sumni 0.00000
 ne = 1.0000

 iter:11  failiter:11  energy:     -1.553107520698  total:     -1.072037331071  error:      0.000000003599
 In Bisection function HOMO = -0.503  LUMO =  2.582

 1.03972 = (-0.50283 + 2.58228)/2.0
 sum -  nocc_ = 3.02247693
 On Iteration in Bisection 0
 a: 3.02248  b:-0.49995

 0.26845 = (-0.50283 + 1.03972)/2.0
 sum -  nocc_ = 0.92367430
 On Iteration in Bisection 1
 a: 0.92367  b:-0.49995

 -0.11719 = (-0.50283 + 0.26845)/2.0
 sum -  nocc_ = 0.02111677
 On Iteration in Bisection 2
 a: 0.02112  b:-0.49995

 -0.31001 = (-0.50283 + -0.11719)/2.0
 sum -  nocc_ = -0.04431473
 On Iteration in Bisection 3
 a: -0.04431  b:-0.49995

 -0.21360 = (-0.31001 + -0.11719)/2.0
 sum -  nocc_ = -0.00508757
 On Iteration in Bisection 4
 a: -0.00509  b:-0.04431

 -0.16540 = (-0.21360 + -0.11719)/2.0
 sum -  nocc_ = 0.00622818
 On Iteration in Bisection 5
 a: 0.00623  b:-0.00509

 -0.18950 = (-0.21360 + -0.16540)/2.0
 sum -  nocc_ = 0.00053300
 On Iteration in Bisection 6
 a: 0.00053  b:-0.00509

 -0.20155 = (-0.21360 + -0.18950)/2.0
 sum -  nocc_ = -0.00223846
 On Iteration in Bisection 7
 a: -0.00224  b:-0.00509

 -0.19552 = (-0.20155 + -0.18950)/2.0
 sum -  nocc_ = -0.00084905
 On Iteration in Bisection 8
 a: -0.00085  b:-0.00224

 -0.19251 = (-0.19552 + -0.18950)/2.0
 sum -  nocc_ = -0.00015786
 On Iteration in Bisection 9
 a: -0.00016  b:-0.00085

 -0.19101 = (-0.19251 + -0.18950)/2.0
 sum -  nocc_ = 0.00018752
 On Iteration in Bisection 10
 a: 0.00019  b:-0.00016

 -0.19176 = (-0.19251 + -0.19101)/2.0
 sum -  nocc_ = 0.00001483
 On Iteration in Bisection 11
 a: 0.00001  b:-0.00016

 -0.19214 = (-0.19251 + -0.19176)/2.0
 sum -  nocc_ = -0.00007151
 On Iteration in Bisection 12
 a: -0.00007  b:-0.00016

 -0.19195 = (-0.19214 + -0.19176)/2.0
 sum -  nocc_ = -0.00002834
 On Iteration in Bisection 13
 a: -0.00003  b:-0.00007

 -0.19185 = (-0.19195 + -0.19176)/2.0
 sum -  nocc_ = -0.00000676
 On Iteration in Bisection 14
 a: -0.00001  b:-0.00003

 -0.19181 = (-0.19185 + -0.19176)/2.0
 sum -  nocc_ = 0.00000404
 On Iteration in Bisection 15
 a: 0.00000  b:-0.00001

 -0.19183 = (-0.19185 + -0.19181)/2.0
 sum -  nocc_ = -0.00000136
 On Iteration in Bisection 16
 a: -0.00000  b:-0.00001

 -0.19182 = (-0.19183 + -0.19181)/2.0
 sum -  nocc_ = 0.00000134
 On Iteration in Bisection 17
 a: 0.00000  b:-0.00000

 -0.19182 = (-0.19183 + -0.19182)/2.0
 sum -  nocc_ = -0.00000001
 On Iteration in Bisection 18
 a: -0.00000  b:-0.00000

 -0.19182 = (-0.19182 + -0.19182)/2.0
 sum -  nocc_ = 0.00000066
 On Iteration in Bisection 19
 a: 0.00000  b:-0.00000

 -0.19182 = (-0.19182 + -0.19182)/2.0
 sum -  nocc_ = 0.00000033
 On Iteration in Bisection 20
 a: 0.00000  b:-0.00000

 -0.19182 = (-0.19182 + -0.19182)/2.0
 sum -  nocc_ = 0.00000016
 On Iteration in Bisection 21
 a: 0.00000  b:-0.00000

 -0.19182 = (-0.19182 + -0.19182)/2.0
 sum -  nocc_ = 0.00000007
 On Iteration in Bisection 22
 a: 0.00000  b:-0.00000

 -0.19182 = (-0.19182 + -0.19182)/2.0
 sum -  nocc_ = 0.00000003
 On Iteration in Bisection 23
 a: 0.00000  b:-0.00000

 -0.19182 = (-0.19182 + -0.19182)/2.0
 sum -  nocc_ = 0.00000001
 ef = -0.19182 sum = 1.00000 

 Iter: 11  T:    20000.000  val:-0.191824  sumni 0.00000
 ne = 1.0000

 iter:12  failiter:12  energy:     -1.553107521499  total:     -1.072037331872  error:     -0.000000000801
 In Bisection function HOMO = -0.503  LUMO =  2.582

 1.03972 = (-0.50283 + 2.58228)/2.0
 sum -  nocc_ = 3.02247693
 On Iteration in Bisection 0
 a: 3.02248  b:-0.49995

 0.26845 = (-0.50283 + 1.03972)/2.0
 sum -  nocc_ = 0.92367430
 On Iteration in Bisection 1
 a: 0.92367  b:-0.49995

 -0.11719 = (-0.50283 + 0.26845)/2.0
 sum -  nocc_ = 0.02111677
 On Iteration in Bisection 2
 a: 0.02112  b:-0.49995

 -0.31001 = (-0.50283 + -0.11719)/2.0
 sum -  nocc_ = -0.04431473
 On Iteration in Bisection 3
 a: -0.04431  b:-0.49995

 -0.21360 = (-0.31001 + -0.11719)/2.0
 sum -  nocc_ = -0.00508757
 On Iteration in Bisection 4
 a: -0.00509  b:-0.04431

 -0.16540 = (-0.21360 + -0.11719)/2.0
 sum -  nocc_ = 0.00622818
 On Iteration in Bisection 5
 a: 0.00623  b:-0.00509

 -0.18950 = (-0.21360 + -0.16540)/2.0
 sum -  nocc_ = 0.00053300
 On Iteration in Bisection 6
 a: 0.00053  b:-0.00509

 -0.20155 = (-0.21360 + -0.18950)/2.0
 sum -  nocc_ = -0.00223846
 On Iteration in Bisection 7
 a: -0.00224  b:-0.00509

 -0.19552 = (-0.20155 + -0.18950)/2.0
 sum -  nocc_ = -0.00084905
 On Iteration in Bisection 8
 a: -0.00085  b:-0.00224

 -0.19251 = (-0.19552 + -0.18950)/2.0
 sum -  nocc_ = -0.00015786
 On Iteration in Bisection 9
 a: -0.00016  b:-0.00085

 -0.19101 = (-0.19251 + -0.18950)/2.0
 sum -  nocc_ = 0.00018752
 On Iteration in Bisection 10
 a: 0.00019  b:-0.00016

 -0.19176 = (-0.19251 + -0.19101)/2.0
 sum -  nocc_ = 0.00001483
 On Iteration in Bisection 11
 a: 0.00001  b:-0.00016

 -0.19214 = (-0.19251 + -0.19176)/2.0
 sum -  nocc_ = -0.00007151
 On Iteration in Bisection 12
 a: -0.00007  b:-0.00016

 -0.19195 = (-0.19214 + -0.19176)/2.0
 sum -  nocc_ = -0.00002834
 On Iteration in Bisection 13
 a: -0.00003  b:-0.00007

 -0.19185 = (-0.19195 + -0.19176)/2.0
 sum -  nocc_ = -0.00000676
 On Iteration in Bisection 14
 a: -0.00001  b:-0.00003

 -0.19181 = (-0.19185 + -0.19176)/2.0
 sum -  nocc_ = 0.00000404
 On Iteration in Bisection 15
 a: 0.00000  b:-0.00001

 -0.19183 = (-0.19185 + -0.19181)/2.0
 sum -  nocc_ = -0.00000136
 On Iteration in Bisection 16
 a: -0.00000  b:-0.00001

 -0.19182 = (-0.19183 + -0.19181)/2.0
 sum -  nocc_ = 0.00000134
 On Iteration in Bisection 17
 a: 0.00000  b:-0.00000

 -0.19182 = (-0.19183 + -0.19182)/2.0
 sum -  nocc_ = -0.00000001
 On Iteration in Bisection 18
 a: -0.00000  b:-0.00000

 -0.19182 = (-0.19182 + -0.19182)/2.0
 sum -  nocc_ = 0.00000066
 On Iteration in Bisection 19
 a: 0.00000  b:-0.00000

 -0.19182 = (-0.19182 + -0.19182)/2.0
 sum -  nocc_ = 0.00000033
 On Iteration in Bisection 20
 a: 0.00000  b:-0.00000

 -0.19182 = (-0.19182 + -0.19182)/2.0
 sum -  nocc_ = 0.00000016
 On Iteration in Bisection 21
 a: 0.00000  b:-0.00000

 -0.19182 = (-0.19182 + -0.19182)/2.0
 sum -  nocc_ = 0.00000007
 On Iteration in Bisection 22
 a: 0.00000  b:-0.00000

 -0.19182 = (-0.19182 + -0.19182)/2.0
 sum -  nocc_ = 0.00000003
 On Iteration in Bisection 23
 a: 0.00000  b:-0.00000

 -0.19182 = (-0.19182 + -0.19182)/2.0
 sum -  nocc_ = 0.00000001
 ef = -0.19182 sum = 1.00000 

 Iter: 12  T:    20000.000  val:-0.191824  sumni 0.00000
 ne = 1.0000

 iter:13  failiter:13  energy:     -1.553107521675  total:     -1.072037332048  error:     -0.000000000176
 In Bisection function HOMO = -0.503  LUMO =  2.582

 1.03972 = (-0.50283 + 2.58228)/2.0
 sum -  nocc_ = 3.02247693
 On Iteration in Bisection 0
 a: 3.02248  b:-0.49995

 0.26845 = (-0.50283 + 1.03972)/2.0
 sum -  nocc_ = 0.92367430
 On Iteration in Bisection 1
 a: 0.92367  b:-0.49995

 -0.11719 = (-0.50283 + 0.26845)/2.0
 sum -  nocc_ = 0.02111677
 On Iteration in Bisection 2
 a: 0.02112  b:-0.49995

 -0.31001 = (-0.50283 + -0.11719)/2.0
 sum -  nocc_ = -0.04431473
 On Iteration in Bisection 3
 a: -0.04431  b:-0.49995

 -0.21360 = (-0.31001 + -0.11719)/2.0
 sum -  nocc_ = -0.00508757
 On Iteration in Bisection 4
 a: -0.00509  b:-0.04431

 -0.16540 = (-0.21360 + -0.11719)/2.0
 sum -  nocc_ = 0.00622818
 On Iteration in Bisection 5
 a: 0.00623  b:-0.00509

 -0.18950 = (-0.21360 + -0.16540)/2.0
 sum -  nocc_ = 0.00053300
 On Iteration in Bisection 6
 a: 0.00053  b:-0.00509

 -0.20155 = (-0.21360 + -0.18950)/2.0
 sum -  nocc_ = -0.00223846
 On Iteration in Bisection 7
 a: -0.00224  b:-0.00509

 -0.19552 = (-0.20155 + -0.18950)/2.0
 sum -  nocc_ = -0.00084905
 On Iteration in Bisection 8
 a: -0.00085  b:-0.00224

 -0.19251 = (-0.19552 + -0.18950)/2.0
 sum -  nocc_ = -0.00015786
 On Iteration in Bisection 9
 a: -0.00016  b:-0.00085

 -0.19101 = (-0.19251 + -0.18950)/2.0
 sum -  nocc_ = 0.00018752
 On Iteration in Bisection 10
 a: 0.00019  b:-0.00016

 -0.19176 = (-0.19251 + -0.19101)/2.0
 sum -  nocc_ = 0.00001483
 On Iteration in Bisection 11
 a: 0.00001  b:-0.00016

 -0.19214 = (-0.19251 + -0.19176)/2.0
 sum -  nocc_ = -0.00007151
 On Iteration in Bisection 12
 a: -0.00007  b:-0.00016

 -0.19195 = (-0.19214 + -0.19176)/2.0
 sum -  nocc_ = -0.00002834
 On Iteration in Bisection 13
 a: -0.00003  b:-0.00007

 -0.19185 = (-0.19195 + -0.19176)/2.0
 sum -  nocc_ = -0.00000676
 On Iteration in Bisection 14
 a: -0.00001  b:-0.00003

 -0.19181 = (-0.19185 + -0.19176)/2.0
 sum -  nocc_ = 0.00000404
 On Iteration in Bisection 15
 a: 0.00000  b:-0.00001

 -0.19183 = (-0.19185 + -0.19181)/2.0
 sum -  nocc_ = -0.00000136
 On Iteration in Bisection 16
 a: -0.00000  b:-0.00001

 -0.19182 = (-0.19183 + -0.19181)/2.0
 sum -  nocc_ = 0.00000134
 On Iteration in Bisection 17
 a: 0.00000  b:-0.00000

 -0.19182 = (-0.19183 + -0.19182)/2.0
 sum -  nocc_ = -0.00000001
 On Iteration in Bisection 18
 a: -0.00000  b:-0.00000

 -0.19182 = (-0.19182 + -0.19182)/2.0
 sum -  nocc_ = 0.00000066
 On Iteration in Bisection 19
 a: 0.00000  b:-0.00000

 -0.19182 = (-0.19182 + -0.19182)/2.0
 sum -  nocc_ = 0.00000033
 On Iteration in Bisection 20
 a: 0.00000  b:-0.00000

 -0.19182 = (-0.19182 + -0.19182)/2.0
 sum -  nocc_ = 0.00000016
 On Iteration in Bisection 21
 a: 0.00000  b:-0.00000

 -0.19182 = (-0.19182 + -0.19182)/2.0
 sum -  nocc_ = 0.00000007
 On Iteration in Bisection 22
 a: 0.00000  b:-0.00000

 -0.19182 = (-0.19182 + -0.19182)/2.0
 sum -  nocc_ = 0.00000003
 On Iteration in Bisection 23
 a: 0.00000  b:-0.00000

 -0.19182 = (-0.19182 + -0.19182)/2.0
 sum -  nocc_ = 0.00000001
 ef = -0.19182 sum = 1.00000 

 Iter: 13  T:    20000.000  val:-0.191824  sumni 0.00000
 ne = 1.0000

 iter:14  failiter:14  energy:     -1.553107521708  total:     -1.072037332081  error:     -0.000000000033
 In Bisection function HOMO = -0.503  LUMO =  2.582

 1.03972 = (-0.50283 + 2.58228)/2.0
 sum -  nocc_ = 3.02247693
 On Iteration in Bisection 0
 a: 3.02248  b:-0.49995

 0.26845 = (-0.50283 + 1.03972)/2.0
 sum -  nocc_ = 0.92367430
 On Iteration in Bisection 1
 a: 0.92367  b:-0.49995

 -0.11719 = (-0.50283 + 0.26845)/2.0
 sum -  nocc_ = 0.02111677
 On Iteration in Bisection 2
 a: 0.02112  b:-0.49995

 -0.31001 = (-0.50283 + -0.11719)/2.0
 sum -  nocc_ = -0.04431473
 On Iteration in Bisection 3
 a: -0.04431  b:-0.49995

 -0.21360 = (-0.31001 + -0.11719)/2.0
 sum -  nocc_ = -0.00508757
 On Iteration in Bisection 4
 a: -0.00509  b:-0.04431

 -0.16540 = (-0.21360 + -0.11719)/2.0
 sum -  nocc_ = 0.00622818
 On Iteration in Bisection 5
 a: 0.00623  b:-0.00509

 -0.18950 = (-0.21360 + -0.16540)/2.0
 sum -  nocc_ = 0.00053300
 On Iteration in Bisection 6
 a: 0.00053  b:-0.00509

 -0.20155 = (-0.21360 + -0.18950)/2.0
 sum -  nocc_ = -0.00223846
 On Iteration in Bisection 7
 a: -0.00224  b:-0.00509

 -0.19552 = (-0.20155 + -0.18950)/2.0
 sum -  nocc_ = -0.00084905
 On Iteration in Bisection 8
 a: -0.00085  b:-0.00224

 -0.19251 = (-0.19552 + -0.18950)/2.0
 sum -  nocc_ = -0.00015786
 On Iteration in Bisection 9
 a: -0.00016  b:-0.00085

 -0.19101 = (-0.19251 + -0.18950)/2.0
 sum -  nocc_ = 0.00018752
 On Iteration in Bisection 10
 a: 0.00019  b:-0.00016

 -0.19176 = (-0.19251 + -0.19101)/2.0
 sum -  nocc_ = 0.00001483
 On Iteration in Bisection 11
 a: 0.00001  b:-0.00016

 -0.19214 = (-0.19251 + -0.19176)/2.0
 sum -  nocc_ = -0.00007151
 On Iteration in Bisection 12
 a: -0.00007  b:-0.00016

 -0.19195 = (-0.19214 + -0.19176)/2.0
 sum -  nocc_ = -0.00002834
 On Iteration in Bisection 13
 a: -0.00003  b:-0.00007

 -0.19185 = (-0.19195 + -0.19176)/2.0
 sum -  nocc_ = -0.00000676
 On Iteration in Bisection 14
 a: -0.00001  b:-0.00003

 -0.19181 = (-0.19185 + -0.19176)/2.0
 sum -  nocc_ = 0.00000404
 On Iteration in Bisection 15
 a: 0.00000  b:-0.00001

 -0.19183 = (-0.19185 + -0.19181)/2.0
 sum -  nocc_ = -0.00000136
 On Iteration in Bisection 16
 a: -0.00000  b:-0.00001

 -0.19182 = (-0.19183 + -0.19181)/2.0
 sum -  nocc_ = 0.00000134
 On Iteration in Bisection 17
 a: 0.00000  b:-0.00000

 -0.19182 = (-0.19183 + -0.19182)/2.0
 sum -  nocc_ = -0.00000001
 On Iteration in Bisection 18
 a: -0.00000  b:-0.00000

 -0.19182 = (-0.19182 + -0.19182)/2.0
 sum -  nocc_ = 0.00000066
 On Iteration in Bisection 19
 a: 0.00000  b:-0.00000

 -0.19182 = (-0.19182 + -0.19182)/2.0
 sum -  nocc_ = 0.00000033
 On Iteration in Bisection 20
 a: 0.00000  b:-0.00000

 -0.19182 = (-0.19182 + -0.19182)/2.0
 sum -  nocc_ = 0.00000016
 On Iteration in Bisection 21
 a: 0.00000  b:-0.00000

 -0.19182 = (-0.19182 + -0.19182)/2.0
 sum -  nocc_ = 0.00000007
 On Iteration in Bisection 22
 a: 0.00000  b:-0.00000

 -0.19182 = (-0.19182 + -0.19182)/2.0
 sum -  nocc_ = 0.00000003
 On Iteration in Bisection 23
 a: 0.00000  b:-0.00000

 -0.19182 = (-0.19182 + -0.19182)/2.0
 sum -  nocc_ = 0.00000001
 ef = -0.19182 sum = 1.00000 

 Iter: 14  T:    20000.000  val:-0.191824  sumni 0.00000
 ne = 1.0000

 iter:15  failiter:15  energy:     -1.553107521714  total:     -1.072037332087  error:     -0.000000000006
 In Bisection function HOMO = -0.503  LUMO =  2.582

 1.03972 = (-0.50283 + 2.58228)/2.0
 sum -  nocc_ = 3.02247693
 On Iteration in Bisection 0
 a: 3.02248  b:-0.49995

 0.26845 = (-0.50283 + 1.03972)/2.0
 sum -  nocc_ = 0.92367430
 On Iteration in Bisection 1
 a: 0.92367  b:-0.49995

 -0.11719 = (-0.50283 + 0.26845)/2.0
 sum -  nocc_ = 0.02111677
 On Iteration in Bisection 2
 a: 0.02112  b:-0.49995

 -0.31001 = (-0.50283 + -0.11719)/2.0
 sum -  nocc_ = -0.04431473
 On Iteration in Bisection 3
 a: -0.04431  b:-0.49995

 -0.21360 = (-0.31001 + -0.11719)/2.0
 sum -  nocc_ = -0.00508757
 On Iteration in Bisection 4
 a: -0.00509  b:-0.04431

 -0.16540 = (-0.21360 + -0.11719)/2.0
 sum -  nocc_ = 0.00622818
 On Iteration in Bisection 5
 a: 0.00623  b:-0.00509

 -0.18950 = (-0.21360 + -0.16540)/2.0
 sum -  nocc_ = 0.00053300
 On Iteration in Bisection 6
 a: 0.00053  b:-0.00509

 -0.20155 = (-0.21360 + -0.18950)/2.0
 sum -  nocc_ = -0.00223846
 On Iteration in Bisection 7
 a: -0.00224  b:-0.00509

 -0.19552 = (-0.20155 + -0.18950)/2.0
 sum -  nocc_ = -0.00084905
 On Iteration in Bisection 8
 a: -0.00085  b:-0.00224

 -0.19251 = (-0.19552 + -0.18950)/2.0
 sum -  nocc_ = -0.00015786
 On Iteration in Bisection 9
 a: -0.00016  b:-0.00085

 -0.19101 = (-0.19251 + -0.18950)/2.0
 sum -  nocc_ = 0.00018752
 On Iteration in Bisection 10
 a: 0.00019  b:-0.00016

 -0.19176 = (-0.19251 + -0.19101)/2.0
 sum -  nocc_ = 0.00001483
 On Iteration in Bisection 11
 a: 0.00001  b:-0.00016

 -0.19214 = (-0.19251 + -0.19176)/2.0
 sum -  nocc_ = -0.00007151
 On Iteration in Bisection 12
 a: -0.00007  b:-0.00016

 -0.19195 = (-0.19214 + -0.19176)/2.0
 sum -  nocc_ = -0.00002834
 On Iteration in Bisection 13
 a: -0.00003  b:-0.00007

 -0.19185 = (-0.19195 + -0.19176)/2.0
 sum -  nocc_ = -0.00000676
 On Iteration in Bisection 14
 a: -0.00001  b:-0.00003

 -0.19181 = (-0.19185 + -0.19176)/2.0
 sum -  nocc_ = 0.00000404
 On Iteration in Bisection 15
 a: 0.00000  b:-0.00001

 -0.19183 = (-0.19185 + -0.19181)/2.0
 sum -  nocc_ = -0.00000136
 On Iteration in Bisection 16
 a: -0.00000  b:-0.00001

 -0.19182 = (-0.19183 + -0.19181)/2.0
 sum -  nocc_ = 0.00000134
 On Iteration in Bisection 17
 a: 0.00000  b:-0.00000

 -0.19182 = (-0.19183 + -0.19182)/2.0
 sum -  nocc_ = -0.00000001
 On Iteration in Bisection 18
 a: -0.00000  b:-0.00000

 -0.19182 = (-0.19182 + -0.19182)/2.0
 sum -  nocc_ = 0.00000066
 On Iteration in Bisection 19
 a: 0.00000  b:-0.00000

 -0.19182 = (-0.19182 + -0.19182)/2.0
 sum -  nocc_ = 0.00000033
 On Iteration in Bisection 20
 a: 0.00000  b:-0.00000

 -0.19182 = (-0.19182 + -0.19182)/2.0
 sum -  nocc_ = 0.00000016
 On Iteration in Bisection 21
 a: 0.00000  b:-0.00000

 -0.19182 = (-0.19182 + -0.19182)/2.0
 sum -  nocc_ = 0.00000007
 On Iteration in Bisection 22
 a: 0.00000  b:-0.00000

 -0.19182 = (-0.19182 + -0.19182)/2.0
 sum -  nocc_ = 0.00000003
 On Iteration in Bisection 23
 a: 0.00000  b:-0.00000

 -0.19182 = (-0.19182 + -0.19182)/2.0
 sum -  nocc_ = 0.00000001
 ef = -0.19182 sum = 1.00000 

 Iter: 15  T:    20000.000  val:-0.191824  sumni 0.00000
 ne = 1.0000

 iter:16  failiter:16  energy:     -1.553107521715  total:     -1.072037332088  error:     -0.000000000001
 In Bisection function HOMO = -0.503  LUMO =  2.582

 1.03972 = (-0.50283 + 2.58228)/2.0
 sum -  nocc_ = 3.02247693
 On Iteration in Bisection 0
 a: 3.02248  b:-0.49995

 0.26845 = (-0.50283 + 1.03972)/2.0
 sum -  nocc_ = 0.92367430
 On Iteration in Bisection 1
 a: 0.92367  b:-0.49995

 -0.11719 = (-0.50283 + 0.26845)/2.0
 sum -  nocc_ = 0.02111677
 On Iteration in Bisection 2
 a: 0.02112  b:-0.49995

 -0.31001 = (-0.50283 + -0.11719)/2.0
 sum -  nocc_ = -0.04431473
 On Iteration in Bisection 3
 a: -0.04431  b:-0.49995

 -0.21360 = (-0.31001 + -0.11719)/2.0
 sum -  nocc_ = -0.00508757
 On Iteration in Bisection 4
 a: -0.00509  b:-0.04431

 -0.16540 = (-0.21360 + -0.11719)/2.0
 sum -  nocc_ = 0.00622818
 On Iteration in Bisection 5
 a: 0.00623  b:-0.00509

 -0.18950 = (-0.21360 + -0.16540)/2.0
 sum -  nocc_ = 0.00053300
 On Iteration in Bisection 6
 a: 0.00053  b:-0.00509

 -0.20155 = (-0.21360 + -0.18950)/2.0
 sum -  nocc_ = -0.00223846
 On Iteration in Bisection 7
 a: -0.00224  b:-0.00509

 -0.19552 = (-0.20155 + -0.18950)/2.0
 sum -  nocc_ = -0.00084905
 On Iteration in Bisection 8
 a: -0.00085  b:-0.00224

 -0.19251 = (-0.19552 + -0.18950)/2.0
 sum -  nocc_ = -0.00015786
 On Iteration in Bisection 9
 a: -0.00016  b:-0.00085

 -0.19101 = (-0.19251 + -0.18950)/2.0
 sum -  nocc_ = 0.00018752
 On Iteration in Bisection 10
 a: 0.00019  b:-0.00016

 -0.19176 = (-0.19251 + -0.19101)/2.0
 sum -  nocc_ = 0.00001483
 On Iteration in Bisection 11
 a: 0.00001  b:-0.00016

 -0.19214 = (-0.19251 + -0.19176)/2.0
 sum -  nocc_ = -0.00007151
 On Iteration in Bisection 12
 a: -0.00007  b:-0.00016

 -0.19195 = (-0.19214 + -0.19176)/2.0
 sum -  nocc_ = -0.00002834
 On Iteration in Bisection 13
 a: -0.00003  b:-0.00007

 -0.19185 = (-0.19195 + -0.19176)/2.0
 sum -  nocc_ = -0.00000676
 On Iteration in Bisection 14
 a: -0.00001  b:-0.00003

 -0.19181 = (-0.19185 + -0.19176)/2.0
 sum -  nocc_ = 0.00000404
 On Iteration in Bisection 15
 a: 0.00000  b:-0.00001

 -0.19183 = (-0.19185 + -0.19181)/2.0
 sum -  nocc_ = -0.00000136
 On Iteration in Bisection 16
 a: -0.00000  b:-0.00001

 -0.19182 = (-0.19183 + -0.19181)/2.0
 sum -  nocc_ = 0.00000134
 On Iteration in Bisection 17
 a: 0.00000  b:-0.00000

 -0.19182 = (-0.19183 + -0.19182)/2.0
 sum -  nocc_ = -0.00000001
 On Iteration in Bisection 18
 a: -0.00000  b:-0.00000

 -0.19182 = (-0.19182 + -0.19182)/2.0
 sum -  nocc_ = 0.00000066
 On Iteration in Bisection 19
 a: 0.00000  b:-0.00000

 -0.19182 = (-0.19182 + -0.19182)/2.0
 sum -  nocc_ = 0.00000033
 On Iteration in Bisection 20
 a: 0.00000  b:-0.00000

 -0.19182 = (-0.19182 + -0.19182)/2.0
 sum -  nocc_ = 0.00000016
 On Iteration in Bisection 21
 a: 0.00000  b:-0.00000

 -0.19182 = (-0.19182 + -0.19182)/2.0
 sum -  nocc_ = 0.00000007
 On Iteration in Bisection 22
 a: 0.00000  b:-0.00000

 -0.19182 = (-0.19182 + -0.19182)/2.0
 sum -  nocc_ = 0.00000003
 On Iteration in Bisection 23
 a: 0.00000  b:-0.00000

 -0.19182 = (-0.19182 + -0.19182)/2.0
 sum -  nocc_ = 0.00000001
 ef = -0.19182 sum = 1.00000 

 Iter: 16  T:    20000.000  val:-0.191824  sumni 0.00000
 ne = 1.0000

 iter:17  failiter:17  energy:     -1.553107521716  total:     -1.072037332088  error:     -0.000000000000
 FTHFEnergy =    -1.072037
 FD_dis[0] = 0.99268653 with -0.502830 eig value
 FD_dis[1] = 0.00730623 with 0.119246 eig value
 FD_dis[2] = 0.00000693 with 0.560516 eig value
 FD_dis[3] = 0.00000031 with 0.756948 eig value
 FD_dis[4] = 0.00000000 with 1.296450 eig value
 FD_dis[5] = 0.00000000 with 1.296450 eig value
 FD_dis[6] = 0.00000000 with 1.569385 eig value
 FD_dis[7] = 0.00000000 with 1.808875 eig value
 FD_dis[8] = 0.00000000 with 1.808875 eig value
 FD_dis[9] = 0.00000000 with 2.582275 eig value
*** PSI4 exiting successfully. Buy a developer a beer!
