    -----------------------------------------------------------------------
          PSI4: An Open-Source Ab Initio Electronic Structure Package
                              PSI 4.0 Driver

               Git: Rev {master} 556e8139d3cfa1f96ccffe2cdf22cc56a185d2b2

    J. M. Turney, A. C. Simmonett, R. M. Parrish, E. G. Hohenstein,
    F. A. Evangelista, J. T. Fermann, B. J. Mintz, L. A. Burns, J. J. Wilke,
    M. L. Abrams, N. J. Russ, M. L. Leininger, C. L. Janssen, E. T. Seidl,
    W. D. Allen, H. F. Schaefer, R. A. King, E. F. Valeev, C. D. Sherrill,
    and T. D. Crawford, WIREs Comput. Mol. Sci. 2, 556-565 (2012)
    (doi: 10.1002/wcms.93)

                         Additional Contributions by
    A. E. DePrince, M. Saitow, U. Bozkaya, A. Yu. Sokolov
    -----------------------------------------------------------------------

    Process ID:  14574
    PSI4DATADIR: /Users/kevinhannon/Programs/psi4cmake/psi4/lib
    Memory level set to 256.000 MB

  ==> Input File <==

--------------------------------------------------------------------------

# PYTHONPATH must include directory above plugin directory.
#     Define either externally or here, then import plugin.
sys.path.insert(0, '/Users/kevinhannon/Programs/Quantum_Programs/Quantum-Programs/GS/')
import scf

molecule {
0 1
H
H 1 2.30000
symmetry c1
units angstrom
}


set {
  basis cc-pvdz
  reference rhf
  scf_type  pk
}

set scf {
  DO_FTHF true
  MAX_ITER 130
  MAX_TEMP 20000
  TEMP_INCREMENT 0
  bisect  true
  bisect_iter  40
}
energy('rhf')
energy('scf')


--------------------------------------------------------------------------

*** tstart() called on Kevins-MacBook-Pro.local
*** at Sun Apr 12 15:46:05 2015

/Users/kevinhannon/Programs/Quantum_Programs/Quantum-Programs/GS/scf/scf.so loaded.

*** tstart() called on Kevins-MacBook-Pro.local
*** at Sun Apr 12 15:46:05 2015


         ---------------------------------------------------------
                                   SCF
            by Justin Turney, Rob Parrish, and Andy Simmonett
                              RHF Reference
                        1 Threads,    256 MiB Core
         ---------------------------------------------------------

  ==> Geometry <==

    Molecular point group: c1
    Full point group: D_inf_h

    Geometry (in Angstrom), charge = 0, multiplicity = 1:

       Center              X                  Y                   Z       
    ------------   -----------------  -----------------  -----------------
           H          0.000000000000     0.000000000000    -1.150000000000
           H          0.000000000000     0.000000000000     1.150000000000

  Running in c1 symmetry.

  Rotational constants: A = ************  B =      6.32391  C =      6.32391 [cm^-1]
  Rotational constants: A = ************  B = 189586.05018  C = 189586.05018 [MHz]
  Nuclear repulsion =    0.230077047213044

  Charge       = 0
  Multiplicity = 1
  Electrons    = 2
  Nalpha       = 1
  Nbeta        = 1

  ==> Algorithm <==

  SCF Algorithm Type is PK.
  DIIS enabled.
  MOM disabled.
  Fractional occupation disabled.
  Guess Type is CORE.
  Energy threshold   = 1.00e-06
  Density threshold  = 1.00e-06
  Integral threshold = 0.00e+00

  ==> Primary Basis <==

  Basis Set: CC-PVDZ
    Number of shells: 6
    Number of basis function: 10
    Number of Cartesian functions: 10
    Spherical Harmonics?: true
    Max angular momentum: 1

  ==> Pre-Iterations <==

   -------------------------------------------------------
    Irrep   Nso     Nmo     Nalpha   Nbeta   Ndocc  Nsocc
   -------------------------------------------------------
     A         10      10       0       0       0       0
   -------------------------------------------------------
    Total      10      10       1       1       1       0
   -------------------------------------------------------

  Starting with a DF guess...

 OEINTS: Overlap, kinetic, potential, dipole, and quadrupole integrals
         stored in file 35.

  ==> Integral Setup <==

  ==> DFJK: Density-Fitted J/K Matrices <==

    J tasked:                  Yes
    K tasked:                  Yes
    wK tasked:                  No
    OpenMP threads:              1
    Integrals threads:           1
    Memory (MB):               183
    Algorithm:                Core
    Integral Cache:           NONE
    Schwarz Cutoff:          1E-12
    Fitting Condition:       1E-12

   => Auxiliary Basis Set <=

  Basis Set: 
    Number of shells: 18
    Number of basis function: 46
    Number of Cartesian functions: 50
    Spherical Harmonics?: true
    Max angular momentum: 2

  Minimum eigenvalue in the overlap matrix is 2.3541804577E-01.
  Using Symmetric Orthogonalization.
  SCF Guess: Core (One-Electron) Hamiltonian.

  ==> Iterations <==

                           Total Energy        Delta E     RMS |[F,P]|

   @DF-RHF iter   1:    -0.86665258348121   -8.66653e-01   1.29643e-02 
   @DF-RHF iter   2:    -0.88491524574296   -1.82627e-02   2.24124e-03 DIIS
   @DF-RHF iter   3:    -0.88550140420003   -5.86158e-04   5.39489e-05 DIIS
   @DF-RHF iter   4:    -0.88550166535631   -2.61156e-07   8.05276e-07 DIIS

  DF guess converged.

  ==> Integral Setup <==

 MINTS: Wrapper to libmints.
   by Justin Turney

   Calculation information:
      Number of atoms:                   2
      Number of AO shells:               6
      Number of SO shells:               6
      Number of primitives:             10
      Number of atomic orbitals:        10
      Number of basis functions:        10

      Number of irreps:                  1
      Integral cutoff                 0.00e+00
      Number of functions per irrep: [  10 ]

 OEINTS: Overlap, kinetic, potential, dipole, and quadrupole integrals
         stored in file 35.

      Computing two-electron integrals...done
      Computed 512 non-zero two-electron integrals.
        Stored in file 33.

	Batch   1 pq = [       0,      55] index = [             0,1540]
  ==> DiskJK: Disk-Based J/K Matrices <==

    J tasked:                  Yes
    K tasked:                  Yes
    wK tasked:                  No
    Memory (MB):               183
    Schwarz Cutoff:          1E-12

   @RHF iter   5:    -0.88548551438285    1.61510e-05   5.40625e-06 DIIS
   @RHF iter   6:    -0.88548551729104   -2.90820e-09   8.97191e-07 DIIS

  ==> Post-Iterations <==

    Orbital Energies (a.u.)
    -----------------------

    Doubly Occupied:                                                      

       1A     -0.362368  

    Virtual:                                                              

       2A     -0.067758     3A      0.643353     4A      0.660289  
       5A      1.426979     6A      1.462521     7A      1.462521  
       8A      1.477990     9A      1.477990    10A      1.572895  

    Final Occupation by Irrep:
              A 
    DOCC [     1 ]

  Energy converged.

  @RHF Final Energy:    -0.88548551729104

   => Energetics <=

    Nuclear Repulsion Energy =              0.2300770472130435
    One-Electron Energy =                  -1.5063863071806889
    Two-Electron Energy =                   0.3908237426766015
    DFT Exchange-Correlation Energy =       0.0000000000000000
    Empirical Dispersion Energy =           0.0000000000000000
    PCM Polarization Energy =               0.0000000000000000
    EFP Energy =                            0.0000000000000000
    Total Energy =                         -0.8854855172910439

    Alert: EFP and PCM quantities not currently incorporated into SCF psivars.

Properties will be evaluated at   0.000000,   0.000000,   0.000000 Bohr
  ==> Properties <==


Properties computed using the SCF density matrix

  Nuclear Dipole Moment: (a.u.)
     X:     0.0000      Y:     0.0000      Z:     0.0000

  Electronic Dipole Moment: (a.u.)
     X:     0.0000      Y:     0.0000      Z:     0.0000

  Dipole Moment: (a.u.)
     X:     0.0000      Y:     0.0000      Z:     0.0000     Total:     0.0000

  Dipole Moment: (Debye)
     X:     0.0000      Y:     0.0000      Z:     0.0000     Total:     0.0000


  Saving occupied orbitals to File 180.

*** tstop() called on Kevins-MacBook-Pro.local at Sun Apr 12 15:46:05 2015
Module time:
	user time   =       0.20 seconds =       0.00 minutes
	system time =       0.02 seconds =       0.00 minutes
	total time  =          0 seconds =       0.00 minutes
Total time:
	user time   =       0.21 seconds =       0.00 minutes
	system time =       0.02 seconds =       0.00 minutes
	total time  =          0 seconds =       0.00 minutes

*** tstart() called on Kevins-MacBook-Pro.local
*** at Sun Apr 12 15:46:05 2015


         ---------------------------------------------------------
                                   SCF
            by Justin Turney, Rob Parrish, and Andy Simmonett
                              RHF Reference
                        1 Threads,    256 MiB Core
         ---------------------------------------------------------

  ==> Geometry <==

    Molecular point group: c1
    Full point group: D_inf_h

    Geometry (in Angstrom), charge = 0, multiplicity = 1:

       Center              X                  Y                   Z       
    ------------   -----------------  -----------------  -----------------
           H          0.000000000000     0.000000000000    -1.150000000000
           H          0.000000000000     0.000000000000     1.150000000000

  Running in c1 symmetry.

  Rotational constants: A = ************  B =      6.32391  C =      6.32391 [cm^-1]
  Rotational constants: A = ************  B = 189586.05018  C = 189586.05018 [MHz]
  Nuclear repulsion =    0.230077047213044

  Charge       = 0
  Multiplicity = 1
  Electrons    = 2
  Nalpha       = 1
  Nbeta        = 1

  ==> Algorithm <==

  SCF Algorithm Type is PK.
  DIIS enabled.
  MOM disabled.
  Fractional occupation disabled.
  Guess Type is CORE.
  Energy threshold   = 1.00e-08
  Density threshold  = 1.00e-08
  Integral threshold = 0.00e+00

  ==> Primary Basis <==

  Basis Set: CC-PVDZ
    Number of shells: 6
    Number of basis function: 10
    Number of Cartesian functions: 10
    Spherical Harmonics?: true
    Max angular momentum: 1

  ==> Pre-Iterations <==

   -------------------------------------------------------
    Irrep   Nso     Nmo     Nalpha   Nbeta   Ndocc  Nsocc
   -------------------------------------------------------
     A         10      10       0       0       0       0
   -------------------------------------------------------
    Total      10      10       1       1       1       0
   -------------------------------------------------------

  Starting with a DF guess...

 OEINTS: Overlap, kinetic, potential, dipole, and quadrupole integrals
         stored in file 35.

  ==> Integral Setup <==

  ==> DFJK: Density-Fitted J/K Matrices <==

    J tasked:                  Yes
    K tasked:                  Yes
    wK tasked:                  No
    OpenMP threads:              1
    Integrals threads:           1
    Memory (MB):               183
    Algorithm:                Core
    Integral Cache:           NONE
    Schwarz Cutoff:          1E-12
    Fitting Condition:       1E-12

   => Auxiliary Basis Set <=

  Basis Set: 
    Number of shells: 18
    Number of basis function: 46
    Number of Cartesian functions: 50
    Spherical Harmonics?: true
    Max angular momentum: 2

  Minimum eigenvalue in the overlap matrix is 2.3541804577E-01.
  Using Symmetric Orthogonalization.
  SCF Guess: Core (One-Electron) Hamiltonian.

  ==> Iterations <==

                           Total Energy        Delta E     RMS |[F,P]|

   @DF-RHF iter   1:    -0.86665258348120   -8.66653e-01   1.29643e-02 
   @DF-RHF iter   2:    -0.88491524574296   -1.82627e-02   2.24124e-03 DIIS
   @DF-RHF iter   3:    -0.88550140420003   -5.86158e-04   5.39489e-05 DIIS
   @DF-RHF iter   4:    -0.88550166535631   -2.61156e-07   8.05276e-07 DIIS
   @DF-RHF iter   5:    -0.88550166540668   -5.03726e-11   1.98055e-10 DIIS

  DF guess converged.

  ==> Integral Setup <==

 MINTS: Wrapper to libmints.
   by Justin Turney

   Calculation information:
      Number of atoms:                   2
      Number of AO shells:               6
      Number of SO shells:               6
      Number of primitives:             10
      Number of atomic orbitals:        10
      Number of basis functions:        10

      Number of irreps:                  1
      Integral cutoff                 0.00e+00
      Number of functions per irrep: [  10 ]

 OEINTS: Overlap, kinetic, potential, dipole, and quadrupole integrals
         stored in file 35.

      Computing two-electron integrals...done
      Computed 512 non-zero two-electron integrals.
        Stored in file 33.

	Batch   1 pq = [       0,      55] index = [             0,1540]
  ==> DiskJK: Disk-Based J/K Matrices <==

    J tasked:                  Yes
    K tasked:                  Yes
    wK tasked:                  No
    Memory (MB):               183
    Schwarz Cutoff:          1E-12

   @RHF iter   6:    -0.88548551438307    1.61510e-05   5.40606e-06 DIIS
   @RHF iter   7:    -0.88548551729105   -2.90798e-09   8.97157e-07 DIIS
   @RHF iter   8:    -0.88548551738034   -8.92943e-11   2.75577e-08 DIIS
   @RHF iter   9:    -0.88548551738042   -7.23865e-14   1.50875e-13 DIIS

  ==> Post-Iterations <==

    Orbital Energies (a.u.)
    -----------------------

    Doubly Occupied:                                                      

       1A     -0.362368  

    Virtual:                                                              

       2A     -0.067758     3A      0.643353     4A      0.660289  
       5A      1.426980     6A      1.462521     7A      1.462521  
       8A      1.477990     9A      1.477990    10A      1.572895  

    Final Occupation by Irrep:
              A 
    DOCC [     1 ]

  Energy converged.

  @RHF Final Energy:    -0.88548551738042

   => Energetics <=

    Nuclear Repulsion Energy =              0.2300770472130435
    One-Electron Energy =                  -1.5063885757697000
    Two-Electron Energy =                   0.3908260111762393
    DFT Exchange-Correlation Energy =       0.0000000000000000
    Empirical Dispersion Energy =           0.0000000000000000
    PCM Polarization Energy =               0.0000000000000000
    EFP Energy =                            0.0000000000000000
    Total Energy =                         -0.8854855173804170

    Alert: EFP and PCM quantities not currently incorporated into SCF psivars.

Properties will be evaluated at   0.000000,   0.000000,   0.000000 Bohr
  ==> Properties <==


Properties computed using the SCF density matrix

  Nuclear Dipole Moment: (a.u.)
     X:     0.0000      Y:     0.0000      Z:     0.0000

  Electronic Dipole Moment: (a.u.)
     X:    -0.0000      Y:     0.0000      Z:     0.0000

  Dipole Moment: (a.u.)
     X:    -0.0000      Y:     0.0000      Z:     0.0000     Total:     0.0000

  Dipole Moment: (Debye)
     X:    -0.0000      Y:     0.0000      Z:     0.0000     Total:     0.0000


  Saving occupied orbitals to File 180.

*** tstop() called on Kevins-MacBook-Pro.local at Sun Apr 12 15:46:05 2015
Module time:
	user time   =       0.21 seconds =       0.00 minutes
	system time =       0.01 seconds =       0.00 minutes
	total time  =          0 seconds =       0.00 minutes
Total time:
	user time   =       0.43 seconds =       0.01 minutes
	system time =       0.03 seconds =       0.00 minutes
	total time  =          0 seconds =       0.00 minutes
Reading options from the SCF block
Calling plugin scf.so.
    Molecular point group: c1
    Full point group: D_inf_h

    Geometry (in Angstrom), charge = 0, multiplicity = 1:

       Center              X                  Y                   Z       
    ------------   -----------------  -----------------  -----------------
           H          0.000000000000     0.000000000000    -1.150000000000
           H          0.000000000000     0.000000000000     1.150000000000


    Nuclear repulsion energy:       0.23007705

  ## Overlap (Symmetry 0) ##
  Irrep: 1 Size: 10 x 10

                 1                   2                   3                   4                   5

    1     1.00000000000000     0.68486025149275     0.00000000000000     0.00000000000000     0.00000000000000
    2     0.68486025149275     1.00000000000000     0.00000000000000     0.00000000000000     0.00000000000000
    3     0.00000000000000     0.00000000000000     1.00000000000000     0.00000000000000     0.00000000000000
    4     0.00000000000000     0.00000000000000     0.00000000000000     1.00000000000000     0.00000000000000
    5     0.00000000000000     0.00000000000000     0.00000000000000     0.00000000000000     1.00000000000000
    6     0.01021473306472     0.10832496757798     0.01197820051089     0.00000000000000     0.00000000000000
    7     0.10832496757798     0.31589451993072     0.08697500047162     0.00000000000000     0.00000000000000
    8    -0.01197820051089    -0.08697500047162    -0.01326532884579     0.00000000000000     0.00000000000000
    9     0.00000000000000     0.00000000000000     0.00000000000000     0.00104174907031     0.00000000000000
   10     0.00000000000000     0.00000000000000     0.00000000000000     0.00000000000000     0.00104174907031

                 6                   7                   8                   9                  10

    1     0.01021473306472     0.10832496757798    -0.01197820051089     0.00000000000000     0.00000000000000
    2     0.10832496757798     0.31589451993072    -0.08697500047162     0.00000000000000     0.00000000000000
    3     0.01197820051089     0.08697500047162    -0.01326532884579     0.00000000000000     0.00000000000000
    4     0.00000000000000     0.00000000000000     0.00000000000000     0.00104174907031     0.00000000000000
    5     0.00000000000000     0.00000000000000     0.00000000000000     0.00000000000000     0.00104174907031
    6     1.00000000000000     0.68486025149275    -0.00000000000000     0.00000000000000     0.00000000000000
    7     0.68486025149275     1.00000000000000     0.00000000000000     0.00000000000000     0.00000000000000
    8    -0.00000000000000     0.00000000000000     1.00000000000000     0.00000000000000     0.00000000000000
    9     0.00000000000000     0.00000000000000     0.00000000000000     1.00000000000000     0.00000000000000
   10     0.00000000000000     0.00000000000000     0.00000000000000     0.00000000000000     1.00000000000000



  ## Kinetic (Symmetry 0) ##
  Irrep: 1 Size: 10 x 10

                 1                   2                   3                   4                   5

    1     0.96945722711242     0.20123413106538    -0.00000000000000     0.00000000000000     0.00000000000000
    2     0.20123413106538     0.18300000000000     0.00000000000000     0.00000000000000     0.00000000000000
    3    -0.00000000000000     0.00000000000000     1.81750000000000     0.00000000000000     0.00000000000000
    4     0.00000000000000     0.00000000000000     0.00000000000000     1.81750000000000     0.00000000000000
    5     0.00000000000000     0.00000000000000     0.00000000000000     0.00000000000000     1.81750000000000
    6    -0.01301793053618    -0.00725253053870    -0.01823045486124     0.00000000000000     0.00000000000000
    7    -0.00725253053870     0.01339824778873     0.00956750620437     0.00000000000000     0.00000000000000
    8     0.01823045486124    -0.00956750620437     0.03171223349086     0.00000000000000     0.00000000000000
    9     0.00000000000000     0.00000000000000     0.00000000000000    -0.00330724388722     0.00000000000000
   10     0.00000000000000     0.00000000000000     0.00000000000000     0.00000000000000    -0.00330724388722

                 6                   7                   8                   9                  10

    1    -0.01301793053618    -0.00725253053870     0.01823045486124     0.00000000000000     0.00000000000000
    2    -0.00725253053870     0.01339824778873    -0.00956750620437     0.00000000000000     0.00000000000000
    3    -0.01823045486124     0.00956750620437     0.03171223349086     0.00000000000000     0.00000000000000
    4     0.00000000000000     0.00000000000000     0.00000000000000    -0.00330724388722     0.00000000000000
    5     0.00000000000000     0.00000000000000     0.00000000000000     0.00000000000000    -0.00330724388722
    6     0.96945722711242     0.20123413106538     0.00000000000000     0.00000000000000     0.00000000000000
    7     0.20123413106538     0.18300000000000     0.00000000000000     0.00000000000000     0.00000000000000
    8     0.00000000000000     0.00000000000000     1.81750000000000     0.00000000000000     0.00000000000000
    9     0.00000000000000     0.00000000000000     0.00000000000000     1.81750000000000     0.00000000000000
   10     0.00000000000000     0.00000000000000     0.00000000000000     0.00000000000000     1.81750000000000



  ## Potential (Symmetry 0) ##
  Irrep: 1 Size: 10 x 10

                 1                   2                   3                   4                   5

    1    -1.60793883086885    -0.80727731187627    -0.03330300682368     0.00000000000000     0.00000000000000
    2    -0.80727731187627    -0.78690409947785    -0.03123992809455     0.00000000000000     0.00000000000000
    3    -0.03330300682368    -0.03123992809455    -1.14553427079087     0.00000000000000     0.00000000000000
    4     0.00000000000000     0.00000000000000     0.00000000000000    -1.13296972661526     0.00000000000000
    5     0.00000000000000     0.00000000000000     0.00000000000000     0.00000000000000    -1.13296972661526
    6    -0.00951868899312    -0.11825079064290    -0.01102727758684     0.00000000000000     0.00000000000000
    7    -0.11825079064290    -0.25322213375100    -0.08584869555786     0.00000000000000     0.00000000000000
    8     0.01102727758684     0.08584869555786     0.01206941482227     0.00000000000000     0.00000000000000
    9     0.00000000000000     0.00000000000000     0.00000000000000    -0.00088894944591     0.00000000000000
   10     0.00000000000000     0.00000000000000     0.00000000000000     0.00000000000000    -0.00088894944591

                 6                   7                   8                   9                  10

    1    -0.00951868899312    -0.11825079064290     0.01102727758684     0.00000000000000     0.00000000000000
    2    -0.11825079064290    -0.25322213375100     0.08584869555786     0.00000000000000     0.00000000000000
    3    -0.01102727758684    -0.08584869555786     0.01206941482227     0.00000000000000     0.00000000000000
    4     0.00000000000000     0.00000000000000     0.00000000000000    -0.00088894944591     0.00000000000000
    5     0.00000000000000     0.00000000000000     0.00000000000000     0.00000000000000    -0.00088894944591
    6    -1.60793883086885    -0.80727731187627     0.03330300682368     0.00000000000000     0.00000000000000
    7    -0.80727731187627    -0.78690409947785     0.03123992809455     0.00000000000000     0.00000000000000
    8     0.03330300682368     0.03123992809455    -1.14553427079087     0.00000000000000     0.00000000000000
    9     0.00000000000000     0.00000000000000     0.00000000000000    -1.13296972661526     0.00000000000000
   10     0.00000000000000     0.00000000000000     0.00000000000000     0.00000000000000    -1.13296972661526



  ## One Electron Ints (Symmetry 0) ##
  Irrep: 1 Size: 10 x 10

                 1                   2                   3                   4                   5

    1    -0.63848160375642    -0.60604318081089    -0.03330300682368     0.00000000000000     0.00000000000000
    2    -0.60604318081089    -0.60390409947785    -0.03123992809455     0.00000000000000     0.00000000000000
    3    -0.03330300682368    -0.03123992809455     0.67196572920913     0.00000000000000     0.00000000000000
    4     0.00000000000000     0.00000000000000     0.00000000000000     0.68453027338474     0.00000000000000
    5     0.00000000000000     0.00000000000000     0.00000000000000     0.00000000000000     0.68453027338474
    6    -0.02253661952929    -0.12550332118160    -0.02925773244808     0.00000000000000     0.00000000000000
    7    -0.12550332118160    -0.23982388596227    -0.07628118935349     0.00000000000000     0.00000000000000
    8     0.02925773244808     0.07628118935349     0.04378164831314     0.00000000000000     0.00000000000000
    9     0.00000000000000     0.00000000000000     0.00000000000000    -0.00419619333313     0.00000000000000
   10     0.00000000000000     0.00000000000000     0.00000000000000     0.00000000000000    -0.00419619333313

                 6                   7                   8                   9                  10

    1    -0.02253661952929    -0.12550332118160     0.02925773244808     0.00000000000000     0.00000000000000
    2    -0.12550332118160    -0.23982388596227     0.07628118935349     0.00000000000000     0.00000000000000
    3    -0.02925773244808    -0.07628118935349     0.04378164831314     0.00000000000000     0.00000000000000
    4     0.00000000000000     0.00000000000000     0.00000000000000    -0.00419619333313     0.00000000000000
    5     0.00000000000000     0.00000000000000     0.00000000000000     0.00000000000000    -0.00419619333313
    6    -0.63848160375642    -0.60604318081089     0.03330300682368     0.00000000000000     0.00000000000000
    7    -0.60604318081089    -0.60390409947785     0.03123992809455     0.00000000000000     0.00000000000000
    8     0.03330300682368     0.03123992809455     0.67196572920913     0.00000000000000     0.00000000000000
    9     0.00000000000000     0.00000000000000     0.00000000000000     0.68453027338474     0.00000000000000
   10     0.00000000000000     0.00000000000000     0.00000000000000     0.00000000000000     0.68453027338474




	There are 0 unique integrals

  ## Fock (Symmetry 0) ##
  Irrep: 1 Size: 10 x 10

                 1                   2                   3                   4                   5

    1    -0.40308279201988    -0.35790134155793    -0.03675506228826     0.00000000000000     0.00000000000000
    2    -0.35790134155793    -0.31469651808877     0.01109284408122    -0.00000000000000     0.00000000000000
    3    -0.03675506228826     0.01109284408122     0.68556540037559    -0.00000000000000     0.00000000000000
    4     0.00000000000000    -0.00000000000000    -0.00000000000000     0.68453538765120     0.00000000000000
    5     0.00000000000000     0.00000000000000     0.00000000000000     0.00000000000000     0.68453538765120
    6     0.01177823407091    -0.00235712436603     0.03621299429697     0.00000000000000     0.00000000000000
    7    -0.00235712436603    -0.08851521886181    -0.11361896919487    -0.00000000000000     0.00000000000000
    8    -0.03621299429697     0.11361896919487     0.05525230807974     0.00000000000000     0.00000000000000
    9     0.00000000000000    -0.00000000000000     0.00000000000000    -0.00490930743681     0.00000000000000
   10     0.00000000000000     0.00000000000000     0.00000000000000     0.00000000000000    -0.00490930743681

                 6                   7                   8                   9                  10

    1     0.01177823407091    -0.00235712436603    -0.03621299429697     0.00000000000000     0.00000000000000
    2    -0.00235712436603    -0.08851521886181     0.11361896919487    -0.00000000000000     0.00000000000000
    3     0.03621299429697    -0.11361896919487     0.05525230807974     0.00000000000000     0.00000000000000
    4     0.00000000000000    -0.00000000000000     0.00000000000000    -0.00490930743681     0.00000000000000
    5     0.00000000000000     0.00000000000000     0.00000000000000     0.00000000000000    -0.00490930743681
    6    -0.40308279201988    -0.35790134155793     0.03675506228826     0.00000000000000     0.00000000000000
    7    -0.35790134155793    -0.31469651808877    -0.01109284408122    -0.00000000000000     0.00000000000000
    8     0.03675506228826    -0.01109284408122     0.68556540037560     0.00000000000000     0.00000000000000
    9     0.00000000000000    -0.00000000000000     0.00000000000000     0.68453538765120     0.00000000000000
   10     0.00000000000000     0.00000000000000     0.00000000000000     0.00000000000000     0.68453538765120



  ## C (Symmetry 0) ##
  Irrep: 1 Size: 10 x 10

                 1                   2                   3                   4                   5

    1     0.93380741808353     0.87861940476999     0.04294498949242     0.01937393084388    -0.03948275434215
    2    -1.02926602930352    -0.84690170399068    -0.00617033753881    -0.08575421789044     0.17563820940761
    3    -0.52129996696602     0.47957549470649     0.07398953057659    -0.02565346373965     0.04627146354828
    4     0.42570059388823    -0.54757679889883     0.13761925968679     0.00000000000000     0.00036831416577
    5     0.02693575712163    -0.07823712453845     0.70189605260080     0.00000000000000     0.00000000000000
    6    -0.04512568538876    -0.00988671660821     0.00263289715907    -0.91344560519341     0.37611178039934
    7     0.19958505214790     0.10377276710369    -0.00501190079974     0.38864374377910    -0.95868367565952
    8    -0.05458161684403    -0.03873713813235     0.00012811257763    -0.71379975745974     0.01253196337975
    9    -0.00022173665912     0.00028521888797    -0.00007168238737    -0.00000000000000    -0.70710706895478
   10    -0.07708069585446     0.11442662964750     0.69315926314120    -0.00000000000000     0.00000000000000

                 6                   7                   8                   9                  10

    1     0.33879916870786     0.41849984232833    -0.05271519184741    -0.02065675562681    -0.03948275434215
    2     0.48737004881545     0.32591216771540     0.03107392735904     0.00678870920613     0.17563820940761
    3    -0.50147442046516     0.49490657925986    -0.07366398954196    -0.01437722273104     0.04627146354828
    4    -0.42570059388824     0.54757679889884     0.13761925968679     0.00000000000000    -0.00036831416577
    5     0.02685547295072    -0.07811796309183    -0.70261853187411    -0.00000000000000     0.00000000000000
    6     0.01733597033686     0.03841484850792    -0.00160725925151    -0.90620940983235     0.37611178039934
    7    -0.07827432091438    -0.11109573814456     0.00044937195430     0.36357981701959    -0.95868367565952
    8     0.01861976624661     0.01786945243699     0.00107387466576     0.70656356209871     0.01253196337975
    9     0.00022173665912    -0.00028521888797    -0.00007168238737    -0.00000000000000     0.70710706895478
   10     0.07705267736490    -0.11434518824181     0.69389083922099     0.00000000000000     0.00000000000000




 In Bisection function HOMO = -0.761  LUMO =  0.769

 0.00402 = (-0.76146 + 0.76950)/2.0
 sum -  nocc_ = 2.12415858
 On Iteration in Bisection 0
 a: 2.12416  b:-0.25957

 -0.37872 = (-0.76146 + 0.00402)/2.0
 sum -  nocc_ = 0.99713789
 On Iteration in Bisection 1
 a: 0.99714  b:-0.25957

 -0.57009 = (-0.76146 + -0.37872)/2.0
 sum -  nocc_ = 0.82048578
 On Iteration in Bisection 2
 a: 0.82049  b:-0.25957

 -0.66578 = (-0.76146 + -0.57009)/2.0
 sum -  nocc_ = 0.40839967
 On Iteration in Bisection 3
 a: 0.40840  b:-0.25957

 -0.71362 = (-0.76146 + -0.66578)/2.0
 sum -  nocc_ = 0.08290571
 On Iteration in Bisection 4
 a: 0.08291  b:-0.25957

 -0.73754 = (-0.76146 + -0.71362)/2.0
 sum -  nocc_ = -0.09076363
 On Iteration in Bisection 5
 a: -0.09076  b:-0.25957

 -0.72558 = (-0.73754 + -0.71362)/2.0
 sum -  nocc_ = -0.00395657
 On Iteration in Bisection 6
 a: -0.00396  b:-0.09076

 -0.71960 = (-0.72558 + -0.71362)/2.0
 sum -  nocc_ = 0.03954167
 On Iteration in Bisection 7
 a: 0.03954  b:-0.00396

 -0.72259 = (-0.72558 + -0.71960)/2.0
 sum -  nocc_ = 0.01780009
 On Iteration in Bisection 8
 a: 0.01780  b:-0.00396

 -0.72409 = (-0.72558 + -0.72259)/2.0
 sum -  nocc_ = 0.00692249
 On Iteration in Bisection 9
 a: 0.00692  b:-0.00396

 -0.72483 = (-0.72558 + -0.72409)/2.0
 sum -  nocc_ = 0.00148299
 On Iteration in Bisection 10
 a: 0.00148  b:-0.00396

 -0.72521 = (-0.72558 + -0.72483)/2.0
 sum -  nocc_ = -0.00123680
 On Iteration in Bisection 11
 a: -0.00124  b:-0.00396

 -0.72502 = (-0.72521 + -0.72483)/2.0
 sum -  nocc_ = 0.00012310
 On Iteration in Bisection 12
 a: 0.00012  b:-0.00124

 -0.72512 = (-0.72521 + -0.72502)/2.0
 sum -  nocc_ = -0.00055685
 On Iteration in Bisection 13
 a: -0.00056  b:-0.00124

 -0.72507 = (-0.72512 + -0.72502)/2.0
 sum -  nocc_ = -0.00021687
 On Iteration in Bisection 14
 a: -0.00022  b:-0.00056

 -0.72505 = (-0.72507 + -0.72502)/2.0
 sum -  nocc_ = -0.00004689
 On Iteration in Bisection 15
 a: -0.00005  b:-0.00022

 -0.72503 = (-0.72505 + -0.72502)/2.0
 sum -  nocc_ = 0.00003811
 On Iteration in Bisection 16
 a: 0.00004  b:-0.00005

 -0.72504 = (-0.72505 + -0.72503)/2.0
 sum -  nocc_ = -0.00000439
 On Iteration in Bisection 17
 a: -0.00000  b:-0.00005

 -0.72504 = (-0.72504 + -0.72503)/2.0
 sum -  nocc_ = 0.00001686
 On Iteration in Bisection 18
 a: 0.00002  b:-0.00000

 -0.72504 = (-0.72504 + -0.72504)/2.0
 sum -  nocc_ = 0.00000623
 On Iteration in Bisection 19
 a: 0.00001  b:-0.00000

 -0.72504 = (-0.72504 + -0.72504)/2.0
 sum -  nocc_ = 0.00000092
 On Iteration in Bisection 20
 a: 0.00000  b:-0.00000

 -0.72504 = (-0.72504 + -0.72504)/2.0
 sum -  nocc_ = -0.00000173
 On Iteration in Bisection 21
 a: -0.00000  b:-0.00000

 -0.72504 = (-0.72504 + -0.72504)/2.0
 sum -  nocc_ = -0.00000041
 On Iteration in Bisection 22
 a: -0.00000  b:-0.00000

 -0.72504 = (-0.72504 + -0.72504)/2.0
 sum -  nocc_ = 0.00000026
 On Iteration in Bisection 23
 a: 0.00000  b:-0.00000

 -0.72504 = (-0.72504 + -0.72504)/2.0
 sum -  nocc_ = -0.00000007
 On Iteration in Bisection 24
 a: -0.00000  b:-0.00000

 -0.72504 = (-0.72504 + -0.72504)/2.0
 sum -  nocc_ = 0.00000009
 On Iteration in Bisection 25
 a: 0.00000  b:-0.00000

 -0.72504 = (-0.72504 + -0.72504)/2.0
 sum -  nocc_ = 0.00000001
 ef = -0.72504 sum = 1.00000 

 Iter: 0  T:    20000.000  val:-0.725039  sumni 0.00000
 ne = 1.0000

Nuc Replusion =       0.230077047213
 1st iteration =       0.677070213197
 In Bisection function HOMO = -0.281  LUMO =  1.868

 0.79321 = (-0.28124 + 1.86766)/2.0
 sum -  nocc_ = 2.42793521
 On Iteration in Bisection 0
 a: 2.42794  b:-0.49964

 0.25598 = (-0.28124 + 0.79321)/2.0
 sum -  nocc_ = 0.69507548
 On Iteration in Bisection 1
 a: 0.69508  b:-0.49964

 -0.01263 = (-0.28124 + 0.25598)/2.0
 sum -  nocc_ = 0.01017385
 On Iteration in Bisection 2
 a: 0.01017  b:-0.49964

 -0.14694 = (-0.28124 + -0.01263)/2.0
 sum -  nocc_ = -0.10412541
 On Iteration in Bisection 3
 a: -0.10413  b:-0.49964

 -0.07978 = (-0.14694 + -0.01263)/2.0
 sum -  nocc_ = -0.03132696
 On Iteration in Bisection 4
 a: -0.03133  b:-0.10413

 -0.04621 = (-0.07978 + -0.01263)/2.0
 sum -  nocc_ = -0.00939847
 On Iteration in Bisection 5
 a: -0.00940  b:-0.03133

 -0.02942 = (-0.04621 + -0.01263)/2.0
 sum -  nocc_ = 0.00037273
 On Iteration in Bisection 6
 a: 0.00037  b:-0.00940

 -0.03781 = (-0.04621 + -0.02942)/2.0
 sum -  nocc_ = -0.00447846
 On Iteration in Bisection 7
 a: -0.00448  b:-0.00940

 -0.03362 = (-0.03781 + -0.02942)/2.0
 sum -  nocc_ = -0.00204903
 On Iteration in Bisection 8
 a: -0.00205  b:-0.00448

 -0.03152 = (-0.03362 + -0.02942)/2.0
 sum -  nocc_ = -0.00083779
 On Iteration in Bisection 9
 a: -0.00084  b:-0.00205

 -0.03047 = (-0.03152 + -0.02942)/2.0
 sum -  nocc_ = -0.00023252
 On Iteration in Bisection 10
 a: -0.00023  b:-0.00084

 -0.02994 = (-0.03047 + -0.02942)/2.0
 sum -  nocc_ = 0.00007010
 On Iteration in Bisection 11
 a: 0.00007  b:-0.00023

 -0.03020 = (-0.03047 + -0.02994)/2.0
 sum -  nocc_ = -0.00008121
 On Iteration in Bisection 12
 a: -0.00008  b:-0.00023

 -0.03007 = (-0.03020 + -0.02994)/2.0
 sum -  nocc_ = -0.00000555
 On Iteration in Bisection 13
 a: -0.00001  b:-0.00008

 -0.03001 = (-0.03007 + -0.02994)/2.0
 sum -  nocc_ = 0.00003227
 On Iteration in Bisection 14
 a: 0.00003  b:-0.00001

 -0.03004 = (-0.03007 + -0.03001)/2.0
 sum -  nocc_ = 0.00001336
 On Iteration in Bisection 15
 a: 0.00001  b:-0.00001

 -0.03006 = (-0.03007 + -0.03004)/2.0
 sum -  nocc_ = 0.00000390
 On Iteration in Bisection 16
 a: 0.00000  b:-0.00001

 -0.03007 = (-0.03007 + -0.03006)/2.0
 sum -  nocc_ = -0.00000083
 On Iteration in Bisection 17
 a: -0.00000  b:-0.00001

 -0.03006 = (-0.03007 + -0.03006)/2.0
 sum -  nocc_ = 0.00000154
 On Iteration in Bisection 18
 a: 0.00000  b:-0.00000

 -0.03006 = (-0.03007 + -0.03006)/2.0
 sum -  nocc_ = 0.00000036
 On Iteration in Bisection 19
 a: 0.00000  b:-0.00000

 -0.03006 = (-0.03007 + -0.03006)/2.0
 sum -  nocc_ = -0.00000023
 On Iteration in Bisection 20
 a: -0.00000  b:-0.00000

 -0.03006 = (-0.03006 + -0.03006)/2.0
 sum -  nocc_ = 0.00000006
 On Iteration in Bisection 21
 a: 0.00000  b:-0.00000

 -0.03006 = (-0.03006 + -0.03006)/2.0
 sum -  nocc_ = -0.00000009
 On Iteration in Bisection 22
 a: -0.00000  b:-0.00000

 -0.03006 = (-0.03006 + -0.03006)/2.0
 sum -  nocc_ = -0.00000001
 On Iteration in Bisection 23
 a: -0.00000  b:-0.00000

 -0.03006 = (-0.03006 + -0.03006)/2.0
 sum -  nocc_ = 0.00000002
 On Iteration in Bisection 24
 a: 0.00000  b:-0.00000

 -0.03006 = (-0.03006 + -0.03006)/2.0
 sum -  nocc_ = 0.00000001
 ef = -0.03006 sum = 1.00000 

 Iter: 0  T:    20000.000  val:-0.030064  sumni 0.00000
 ne = 1.0000

 iter:1  failiter:1  energy:     -0.994737698311  total:     -0.764660651098  error:     -0.109252180931
 In Bisection function HOMO = -0.292  LUMO =  1.877

 0.79270 = (-0.29201 + 1.87740)/2.0
 sum -  nocc_ = 2.17490087
 On Iteration in Bisection 0
 a: 2.17490  b:-0.43942

 0.25035 = (-0.29201 + 0.79270)/2.0
 sum -  nocc_ = 1.06055429
 On Iteration in Bisection 1
 a: 1.06055  b:-0.43942

 -0.02083 = (-0.29201 + 0.25035)/2.0
 sum -  nocc_ = 0.81081456
 On Iteration in Bisection 2
 a: 0.81081  b:-0.43942

 -0.15642 = (-0.29201 + -0.02083)/2.0
 sum -  nocc_ = 0.24912854
 On Iteration in Bisection 3
 a: 0.24913  b:-0.43942

 -0.22421 = (-0.29201 + -0.15642)/2.0
 sum -  nocc_ = -0.09699732
 On Iteration in Bisection 4
 a: -0.09700  b:-0.43942

 -0.19031 = (-0.22421 + -0.15642)/2.0
 sum -  nocc_ = 0.07595963
 On Iteration in Bisection 5
 a: 0.07596  b:-0.09700

 -0.20726 = (-0.22421 + -0.19031)/2.0
 sum -  nocc_ = -0.01051053
 On Iteration in Bisection 6
 a: -0.01051  b:-0.09700

 -0.19879 = (-0.20726 + -0.19031)/2.0
 sum -  nocc_ = 0.03271563
 On Iteration in Bisection 7
 a: 0.03272  b:-0.01051

 -0.20303 = (-0.20726 + -0.19879)/2.0
 sum -  nocc_ = 0.01110167
 On Iteration in Bisection 8
 a: 0.01110  b:-0.01051

 -0.20514 = (-0.20726 + -0.20303)/2.0
 sum -  nocc_ = 0.00029554
 On Iteration in Bisection 9
 a: 0.00030  b:-0.01051

 -0.20620 = (-0.20726 + -0.20514)/2.0
 sum -  nocc_ = -0.00510748
 On Iteration in Bisection 10
 a: -0.00511  b:-0.01051

 -0.20567 = (-0.20620 + -0.20514)/2.0
 sum -  nocc_ = -0.00240597
 On Iteration in Bisection 11
 a: -0.00241  b:-0.00511

 -0.20541 = (-0.20567 + -0.20514)/2.0
 sum -  nocc_ = -0.00105522
 On Iteration in Bisection 12
 a: -0.00106  b:-0.00241

 -0.20528 = (-0.20541 + -0.20514)/2.0
 sum -  nocc_ = -0.00037984
 On Iteration in Bisection 13
 a: -0.00038  b:-0.00106

 -0.20521 = (-0.20528 + -0.20514)/2.0
 sum -  nocc_ = -0.00004215
 On Iteration in Bisection 14
 a: -0.00004  b:-0.00038

 -0.20518 = (-0.20521 + -0.20514)/2.0
 sum -  nocc_ = 0.00012669
 On Iteration in Bisection 15
 a: 0.00013  b:-0.00004

 -0.20519 = (-0.20521 + -0.20518)/2.0
 sum -  nocc_ = 0.00004227
 On Iteration in Bisection 16
 a: 0.00004  b:-0.00004

 -0.20520 = (-0.20521 + -0.20519)/2.0
 sum -  nocc_ = 0.00000006
 On Iteration in Bisection 17
 a: 0.00000  b:-0.00004

 -0.20521 = (-0.20521 + -0.20520)/2.0
 sum -  nocc_ = -0.00002104
 On Iteration in Bisection 18
 a: -0.00002  b:-0.00004

 -0.20520 = (-0.20521 + -0.20520)/2.0
 sum -  nocc_ = -0.00001049
 On Iteration in Bisection 19
 a: -0.00001  b:-0.00002

 -0.20520 = (-0.20520 + -0.20520)/2.0
 sum -  nocc_ = -0.00000522
 On Iteration in Bisection 20
 a: -0.00001  b:-0.00001

 -0.20520 = (-0.20520 + -0.20520)/2.0
 sum -  nocc_ = -0.00000258
 On Iteration in Bisection 21
 a: -0.00000  b:-0.00001

 -0.20520 = (-0.20520 + -0.20520)/2.0
 sum -  nocc_ = -0.00000126
 On Iteration in Bisection 22
 a: -0.00000  b:-0.00000

 -0.20520 = (-0.20520 + -0.20520)/2.0
 sum -  nocc_ = -0.00000060
 On Iteration in Bisection 23
 a: -0.00000  b:-0.00000

 -0.20520 = (-0.20520 + -0.20520)/2.0
 sum -  nocc_ = -0.00000027
 On Iteration in Bisection 24
 a: -0.00000  b:-0.00000

 -0.20520 = (-0.20520 + -0.20520)/2.0
 sum -  nocc_ = -0.00000010
 On Iteration in Bisection 25
 a: -0.00000  b:-0.00000

 -0.20520 = (-0.20520 + -0.20520)/2.0
 sum -  nocc_ = -0.00000002
 On Iteration in Bisection 26
 a: -0.00000  b:-0.00000

 -0.20520 = (-0.20520 + -0.20520)/2.0
 sum -  nocc_ = 0.00000002
 On Iteration in Bisection 27
 a: 0.00000  b:-0.00000

 -0.20520 = (-0.20520 + -0.20520)/2.0
 sum -  nocc_ = -0.00000000
 ef = -0.20520 sum = 1.00000 

 Iter: 1  T:    20000.000  val:-0.205203  sumni 0.00000
 ne = 1.0000

 iter:2  failiter:2  energy:     -0.985936508059  total:     -0.755859460846  error:      0.008801190253
 In Bisection function HOMO = -0.292  LUMO =  1.715

 0.71159 = (-0.29170 + 1.71487)/2.0
 sum -  nocc_ = 2.18063820
 On Iteration in Bisection 0
 a: 2.18064  b:-0.43594

 0.20995 = (-0.29170 + 0.71159)/2.0
 sum -  nocc_ = 1.00124105
 On Iteration in Bisection 1
 a: 1.00124  b:-0.43594

 -0.04088 = (-0.29170 + 0.20995)/2.0
 sum -  nocc_ = 0.76365587
 On Iteration in Bisection 2
 a: 0.76366  b:-0.43594

 -0.16629 = (-0.29170 + -0.04088)/2.0
 sum -  nocc_ = 0.21019456
 On Iteration in Bisection 3
 a: 0.21019  b:-0.43594

 -0.22899 = (-0.29170 + -0.16629)/2.0
 sum -  nocc_ = -0.11532330
 On Iteration in Bisection 4
 a: -0.11532  b:-0.43594

 -0.19764 = (-0.22899 + -0.16629)/2.0
 sum -  nocc_ = 0.04744521
 On Iteration in Bisection 5
 a: 0.04745  b:-0.11532

 -0.21331 = (-0.22899 + -0.19764)/2.0
 sum -  nocc_ = -0.03392983
 On Iteration in Bisection 6
 a: -0.03393  b:-0.11532

 -0.20548 = (-0.21331 + -0.19764)/2.0
 sum -  nocc_ = 0.00675695
 On Iteration in Bisection 7
 a: 0.00676  b:-0.03393

 -0.20940 = (-0.21331 + -0.20548)/2.0
 sum -  nocc_ = -0.01358611
 On Iteration in Bisection 8
 a: -0.01359  b:-0.03393

 -0.20744 = (-0.20940 + -0.20548)/2.0
 sum -  nocc_ = -0.00341456
 On Iteration in Bisection 9
 a: -0.00341  b:-0.01359

 -0.20646 = (-0.20744 + -0.20548)/2.0
 sum -  nocc_ = 0.00167119
 On Iteration in Bisection 10
 a: 0.00167  b:-0.00341

 -0.20695 = (-0.20744 + -0.20646)/2.0
 sum -  nocc_ = -0.00087168
 On Iteration in Bisection 11
 a: -0.00087  b:-0.00341

 -0.20670 = (-0.20695 + -0.20646)/2.0
 sum -  nocc_ = 0.00039976
 On Iteration in Bisection 12
 a: 0.00040  b:-0.00087

 -0.20682 = (-0.20695 + -0.20670)/2.0
 sum -  nocc_ = -0.00023596
 On Iteration in Bisection 13
 a: -0.00024  b:-0.00087

 -0.20676 = (-0.20682 + -0.20670)/2.0
 sum -  nocc_ = 0.00008190
 On Iteration in Bisection 14
 a: 0.00008  b:-0.00024

 -0.20679 = (-0.20682 + -0.20676)/2.0
 sum -  nocc_ = -0.00007703
 On Iteration in Bisection 15
 a: -0.00008  b:-0.00024

 -0.20678 = (-0.20679 + -0.20676)/2.0
 sum -  nocc_ = 0.00000243
 On Iteration in Bisection 16
 a: 0.00000  b:-0.00008

 -0.20679 = (-0.20679 + -0.20678)/2.0
 sum -  nocc_ = -0.00003730
 On Iteration in Bisection 17
 a: -0.00004  b:-0.00008

 -0.20678 = (-0.20679 + -0.20678)/2.0
 sum -  nocc_ = -0.00001744
 On Iteration in Bisection 18
 a: -0.00002  b:-0.00004

 -0.20678 = (-0.20678 + -0.20678)/2.0
 sum -  nocc_ = -0.00000750
 On Iteration in Bisection 19
 a: -0.00001  b:-0.00002

 -0.20678 = (-0.20678 + -0.20678)/2.0
 sum -  nocc_ = -0.00000254
 On Iteration in Bisection 20
 a: -0.00000  b:-0.00001

 -0.20678 = (-0.20678 + -0.20678)/2.0
 sum -  nocc_ = -0.00000005
 On Iteration in Bisection 21
 a: -0.00000  b:-0.00000

 -0.20678 = (-0.20678 + -0.20678)/2.0
 sum -  nocc_ = 0.00000119
 On Iteration in Bisection 22
 a: 0.00000  b:-0.00000

 -0.20678 = (-0.20678 + -0.20678)/2.0
 sum -  nocc_ = 0.00000057
 On Iteration in Bisection 23
 a: 0.00000  b:-0.00000

 -0.20678 = (-0.20678 + -0.20678)/2.0
 sum -  nocc_ = 0.00000026
 On Iteration in Bisection 24
 a: 0.00000  b:-0.00000

 -0.20678 = (-0.20678 + -0.20678)/2.0
 sum -  nocc_ = 0.00000010
 On Iteration in Bisection 25
 a: 0.00000  b:-0.00000

 -0.20678 = (-0.20678 + -0.20678)/2.0
 sum -  nocc_ = 0.00000003
 On Iteration in Bisection 26
 a: 0.00000  b:-0.00000

 -0.20678 = (-0.20678 + -0.20678)/2.0
 sum -  nocc_ = -0.00000001
 On Iteration in Bisection 27
 a: -0.00000  b:-0.00000

 -0.20678 = (-0.20678 + -0.20678)/2.0
 sum -  nocc_ = 0.00000001
 ef = -0.20678 sum = 1.00000 

 Iter: 2  T:    20000.000  val:-0.206778  sumni 0.00000
 ne = 1.0000

 iter:3  failiter:3  energy:     -0.991101599110  total:     -0.761024551897  error:     -0.005165091052
 In Bisection function HOMO = -0.310  LUMO =  1.628

 0.65912 = (-0.30988 + 1.62813)/2.0
 sum -  nocc_ = 2.04021034
 On Iteration in Bisection 0
 a: 2.04021  b:-0.45477

 0.17462 = (-0.30988 + 0.65912)/2.0
 sum -  nocc_ = 0.99146755
 On Iteration in Bisection 1
 a: 0.99147  b:-0.45477

 -0.06763 = (-0.30988 + 0.17462)/2.0
 sum -  nocc_ = 0.66333801
 On Iteration in Bisection 2
 a: 0.66334  b:-0.45477

 -0.18875 = (-0.30988 + -0.06763)/2.0
 sum -  nocc_ = 0.11412309
 On Iteration in Bisection 3
 a: 0.11412  b:-0.45477

 -0.24932 = (-0.30988 + -0.18875)/2.0
 sum -  nocc_ = -0.16790178
 On Iteration in Bisection 4
 a: -0.16790  b:-0.45477

 -0.21903 = (-0.24932 + -0.18875)/2.0
 sum -  nocc_ = -0.02657681
 On Iteration in Bisection 5
 a: -0.02658  b:-0.16790

 -0.20389 = (-0.21903 + -0.18875)/2.0
 sum -  nocc_ = 0.04363289
 On Iteration in Bisection 6
 a: 0.04363  b:-0.02658

 -0.21146 = (-0.21903 + -0.20389)/2.0
 sum -  nocc_ = 0.00852082
 On Iteration in Bisection 7
 a: 0.00852  b:-0.02658

 -0.21525 = (-0.21903 + -0.21146)/2.0
 sum -  nocc_ = -0.00902609
 On Iteration in Bisection 8
 a: -0.00903  b:-0.02658

 -0.21336 = (-0.21525 + -0.21146)/2.0
 sum -  nocc_ = -0.00025263
 On Iteration in Bisection 9
 a: -0.00025  b:-0.00903

 -0.21241 = (-0.21336 + -0.21146)/2.0
 sum -  nocc_ = 0.00413404
 On Iteration in Bisection 10
 a: 0.00413  b:-0.00025

 -0.21288 = (-0.21336 + -0.21241)/2.0
 sum -  nocc_ = 0.00194070
 On Iteration in Bisection 11
 a: 0.00194  b:-0.00025

 -0.21312 = (-0.21336 + -0.21288)/2.0
 sum -  nocc_ = 0.00084404
 On Iteration in Bisection 12
 a: 0.00084  b:-0.00025

 -0.21324 = (-0.21336 + -0.21312)/2.0
 sum -  nocc_ = 0.00029571
 On Iteration in Bisection 13
 a: 0.00030  b:-0.00025

 -0.21330 = (-0.21336 + -0.21324)/2.0
 sum -  nocc_ = 0.00002154
 On Iteration in Bisection 14
 a: 0.00002  b:-0.00025

 -0.21333 = (-0.21336 + -0.21330)/2.0
 sum -  nocc_ = -0.00011554
 On Iteration in Bisection 15
 a: -0.00012  b:-0.00025

 -0.21331 = (-0.21333 + -0.21330)/2.0
 sum -  nocc_ = -0.00004700
 On Iteration in Bisection 16
 a: -0.00005  b:-0.00012

 -0.21330 = (-0.21331 + -0.21330)/2.0
 sum -  nocc_ = -0.00001273
 On Iteration in Bisection 17
 a: -0.00001  b:-0.00005

 -0.21330 = (-0.21330 + -0.21330)/2.0
 sum -  nocc_ = 0.00000441
 On Iteration in Bisection 18
 a: 0.00000  b:-0.00001

 -0.21330 = (-0.21330 + -0.21330)/2.0
 sum -  nocc_ = -0.00000416
 On Iteration in Bisection 19
 a: -0.00000  b:-0.00001

 -0.21330 = (-0.21330 + -0.21330)/2.0
 sum -  nocc_ = 0.00000012
 On Iteration in Bisection 20
 a: 0.00000  b:-0.00000

 -0.21330 = (-0.21330 + -0.21330)/2.0
 sum -  nocc_ = -0.00000202
 On Iteration in Bisection 21
 a: -0.00000  b:-0.00000

 -0.21330 = (-0.21330 + -0.21330)/2.0
 sum -  nocc_ = -0.00000095
 On Iteration in Bisection 22
 a: -0.00000  b:-0.00000

 -0.21330 = (-0.21330 + -0.21330)/2.0
 sum -  nocc_ = -0.00000041
 On Iteration in Bisection 23
 a: -0.00000  b:-0.00000

 -0.21330 = (-0.21330 + -0.21330)/2.0
 sum -  nocc_ = -0.00000015
 On Iteration in Bisection 24
 a: -0.00000  b:-0.00000

 -0.21330 = (-0.21330 + -0.21330)/2.0
 sum -  nocc_ = -0.00000001
 On Iteration in Bisection 25
 a: -0.00000  b:-0.00000

 -0.21330 = (-0.21330 + -0.21330)/2.0
 sum -  nocc_ = 0.00000005
 On Iteration in Bisection 26
 a: 0.00000  b:-0.00000

 -0.21330 = (-0.21330 + -0.21330)/2.0
 sum -  nocc_ = 0.00000002
 On Iteration in Bisection 27
 a: 0.00000  b:-0.00000

 -0.21330 = (-0.21330 + -0.21330)/2.0
 sum -  nocc_ = 0.00000000
 ef = -0.21330 sum = 1.00000 

 Iter: 3  T:    20000.000  val:-0.213302  sumni 0.00000
 ne = 1.0000

 iter:4  failiter:4  energy:     -1.013488651810  total:     -0.783411604597  error:     -0.022387052700
 In Bisection function HOMO = -0.323  LUMO =  1.587

 0.63208 = (-0.32264 + 1.58679)/2.0
 sum -  nocc_ = 1.86700469
 On Iteration in Bisection 0
 a: 1.86700  b:-0.46773

 0.15472 = (-0.32264 + 0.63208)/2.0
 sum -  nocc_ = 0.98467965
 On Iteration in Bisection 1
 a: 0.98468  b:-0.46773

 -0.08396 = (-0.32264 + 0.15472)/2.0
 sum -  nocc_ = 0.56839738
 On Iteration in Bisection 2
 a: 0.56840  b:-0.46773

 -0.20330 = (-0.32264 + -0.08396)/2.0
 sum -  nocc_ = 0.04809036
 On Iteration in Bisection 3
 a: 0.04809  b:-0.46773

 -0.26297 = (-0.32264 + -0.20330)/2.0
 sum -  nocc_ = -0.20165380
 On Iteration in Bisection 4
 a: -0.20165  b:-0.46773

 -0.23313 = (-0.26297 + -0.20330)/2.0
 sum -  nocc_ = -0.07520605
 On Iteration in Bisection 5
 a: -0.07521  b:-0.20165

 -0.21822 = (-0.23313 + -0.20330)/2.0
 sum -  nocc_ = -0.01347857
 On Iteration in Bisection 6
 a: -0.01348  b:-0.07521

 -0.21076 = (-0.21822 + -0.20330)/2.0
 sum -  nocc_ = 0.01728012
 On Iteration in Bisection 7
 a: 0.01728  b:-0.01348

 -0.21449 = (-0.21822 + -0.21076)/2.0
 sum -  nocc_ = 0.00190006
 On Iteration in Bisection 8
 a: 0.00190  b:-0.01348

 -0.21635 = (-0.21822 + -0.21449)/2.0
 sum -  nocc_ = -0.00578872
 On Iteration in Bisection 9
 a: -0.00579  b:-0.01348

 -0.21542 = (-0.21635 + -0.21449)/2.0
 sum -  nocc_ = -0.00194428
 On Iteration in Bisection 10
 a: -0.00194  b:-0.00579

 -0.21495 = (-0.21542 + -0.21449)/2.0
 sum -  nocc_ = -0.00002211
 On Iteration in Bisection 11
 a: -0.00002  b:-0.00194

 -0.21472 = (-0.21495 + -0.21449)/2.0
 sum -  nocc_ = 0.00093897
 On Iteration in Bisection 12
 a: 0.00094  b:-0.00002

 -0.21484 = (-0.21495 + -0.21472)/2.0
 sum -  nocc_ = 0.00045843
 On Iteration in Bisection 13
 a: 0.00046  b:-0.00002

 -0.21490 = (-0.21495 + -0.21484)/2.0
 sum -  nocc_ = 0.00021816
 On Iteration in Bisection 14
 a: 0.00022  b:-0.00002

 -0.21492 = (-0.21495 + -0.21490)/2.0
 sum -  nocc_ = 0.00009802
 On Iteration in Bisection 15
 a: 0.00010  b:-0.00002

 -0.21494 = (-0.21495 + -0.21492)/2.0
 sum -  nocc_ = 0.00003795
 On Iteration in Bisection 16
 a: 0.00004  b:-0.00002

 -0.21495 = (-0.21495 + -0.21494)/2.0
 sum -  nocc_ = 0.00000792
 On Iteration in Bisection 17
 a: 0.00001  b:-0.00002

 -0.21495 = (-0.21495 + -0.21495)/2.0
 sum -  nocc_ = -0.00000710
 On Iteration in Bisection 18
 a: -0.00001  b:-0.00002

 -0.21495 = (-0.21495 + -0.21495)/2.0
 sum -  nocc_ = 0.00000041
 On Iteration in Bisection 19
 a: 0.00000  b:-0.00001

 -0.21495 = (-0.21495 + -0.21495)/2.0
 sum -  nocc_ = -0.00000334
 On Iteration in Bisection 20
 a: -0.00000  b:-0.00001

 -0.21495 = (-0.21495 + -0.21495)/2.0
 sum -  nocc_ = -0.00000146
 On Iteration in Bisection 21
 a: -0.00000  b:-0.00000

 -0.21495 = (-0.21495 + -0.21495)/2.0
 sum -  nocc_ = -0.00000053
 On Iteration in Bisection 22
 a: -0.00000  b:-0.00000

 -0.21495 = (-0.21495 + -0.21495)/2.0
 sum -  nocc_ = -0.00000006
 On Iteration in Bisection 23
 a: -0.00000  b:-0.00000

 -0.21495 = (-0.21495 + -0.21495)/2.0
 sum -  nocc_ = 0.00000018
 On Iteration in Bisection 24
 a: 0.00000  b:-0.00000

 -0.21495 = (-0.21495 + -0.21495)/2.0
 sum -  nocc_ = 0.00000006
 On Iteration in Bisection 25
 a: 0.00000  b:-0.00000

 -0.21495 = (-0.21495 + -0.21495)/2.0
 sum -  nocc_ = 0.00000000
 ef = -0.21495 sum = 1.00000 

 Iter: 4  T:    20000.000  val:-0.214948  sumni 0.00000
 ne = 1.0000

 iter:5  failiter:5  energy:     -1.029586160476  total:     -0.799509113263  error:     -0.016097508665
 In Bisection function HOMO = -0.329  LUMO =  1.574

 0.62217 = (-0.32943 + 1.57376)/2.0
 sum -  nocc_ = 1.78723454
 On Iteration in Bisection 0
 a: 1.78723  b:-0.47337

 0.14637 = (-0.32943 + 0.62217)/2.0
 sum -  nocc_ = 0.98061970
 On Iteration in Bisection 1
 a: 0.98062  b:-0.47337

 -0.09153 = (-0.32943 + 0.14637)/2.0
 sum -  nocc_ = 0.51652805
 On Iteration in Bisection 2
 a: 0.51653  b:-0.47337

 -0.21048 = (-0.32943 + -0.09153)/2.0
 sum -  nocc_ = 0.01921557
 On Iteration in Bisection 3
 a: 0.01922  b:-0.47337

 -0.26995 = (-0.32943 + -0.21048)/2.0
 sum -  nocc_ = -0.21568095
 On Iteration in Bisection 4
 a: -0.21568  b:-0.47337

 -0.24022 = (-0.26995 + -0.21048)/2.0
 sum -  nocc_ = -0.09579697
 On Iteration in Bisection 5
 a: -0.09580  b:-0.21568

 -0.22535 = (-0.24022 + -0.21048)/2.0
 sum -  nocc_ = -0.03801680
 On Iteration in Bisection 6
 a: -0.03802  b:-0.09580

 -0.21791 = (-0.22535 + -0.21048)/2.0
 sum -  nocc_ = -0.00938330
 On Iteration in Bisection 7
 a: -0.00938  b:-0.03802

 -0.21420 = (-0.21791 + -0.21048)/2.0
 sum -  nocc_ = 0.00491386
 On Iteration in Bisection 8
 a: 0.00491  b:-0.00938

 -0.21605 = (-0.21791 + -0.21420)/2.0
 sum -  nocc_ = -0.00223446
 On Iteration in Bisection 9
 a: -0.00223  b:-0.00938

 -0.21512 = (-0.21605 + -0.21420)/2.0
 sum -  nocc_ = 0.00133966
 On Iteration in Bisection 10
 a: 0.00134  b:-0.00223

 -0.21559 = (-0.21605 + -0.21512)/2.0
 sum -  nocc_ = -0.00044740
 On Iteration in Bisection 11
 a: -0.00045  b:-0.00223

 -0.21536 = (-0.21559 + -0.21512)/2.0
 sum -  nocc_ = 0.00044613
 On Iteration in Bisection 12
 a: 0.00045  b:-0.00045

 -0.21547 = (-0.21559 + -0.21536)/2.0
 sum -  nocc_ = -0.00000063
 On Iteration in Bisection 13
 a: -0.00000  b:-0.00045

 -0.21541 = (-0.21547 + -0.21536)/2.0
 sum -  nocc_ = 0.00022275
 On Iteration in Bisection 14
 a: 0.00022  b:-0.00000

 -0.21544 = (-0.21547 + -0.21541)/2.0
 sum -  nocc_ = 0.00011106
 On Iteration in Bisection 15
 a: 0.00011  b:-0.00000

 -0.21546 = (-0.21547 + -0.21544)/2.0
 sum -  nocc_ = 0.00005521
 On Iteration in Bisection 16
 a: 0.00006  b:-0.00000

 -0.21547 = (-0.21547 + -0.21546)/2.0
 sum -  nocc_ = 0.00002729
 On Iteration in Bisection 17
 a: 0.00003  b:-0.00000

 -0.21547 = (-0.21547 + -0.21547)/2.0
 sum -  nocc_ = 0.00001333
 On Iteration in Bisection 18
 a: 0.00001  b:-0.00000

 -0.21547 = (-0.21547 + -0.21547)/2.0
 sum -  nocc_ = 0.00000635
 On Iteration in Bisection 19
 a: 0.00001  b:-0.00000

 -0.21547 = (-0.21547 + -0.21547)/2.0
 sum -  nocc_ = 0.00000286
 On Iteration in Bisection 20
 a: 0.00000  b:-0.00000

 -0.21547 = (-0.21547 + -0.21547)/2.0
 sum -  nocc_ = 0.00000111
 On Iteration in Bisection 21
 a: 0.00000  b:-0.00000

 -0.21547 = (-0.21547 + -0.21547)/2.0
 sum -  nocc_ = 0.00000024
 On Iteration in Bisection 22
 a: 0.00000  b:-0.00000

 -0.21547 = (-0.21547 + -0.21547)/2.0
 sum -  nocc_ = -0.00000020
 On Iteration in Bisection 23
 a: -0.00000  b:-0.00000

 -0.21547 = (-0.21547 + -0.21547)/2.0
 sum -  nocc_ = 0.00000002
 On Iteration in Bisection 24
 a: 0.00000  b:-0.00000

 -0.21547 = (-0.21547 + -0.21547)/2.0
 sum -  nocc_ = -0.00000009
 On Iteration in Bisection 25
 a: -0.00000  b:-0.00000

 -0.21547 = (-0.21547 + -0.21547)/2.0
 sum -  nocc_ = -0.00000003
 On Iteration in Bisection 26
 a: -0.00000  b:-0.00000

 -0.21547 = (-0.21547 + -0.21547)/2.0
 sum -  nocc_ = -0.00000001
 ef = -0.21547 sum = 1.00000 

 Iter: 5  T:    20000.000  val:-0.215473  sumni 0.00000
 ne = 1.0000

 iter:6  failiter:6  energy:     -1.038300918659  total:     -0.808223871446  error:     -0.008714758183
 In Bisection function HOMO = -0.332  LUMO =  1.571

 0.61915 = (-0.33243 + 1.57074)/2.0
 sum -  nocc_ = 1.76214742
 On Iteration in Bisection 0
 a: 1.76215  b:-0.47564

 0.14336 = (-0.33243 + 0.61915)/2.0
 sum -  nocc_ = 0.97872871
 On Iteration in Bisection 1
 a: 0.97873  b:-0.47564

 -0.09454 = (-0.33243 + 0.14336)/2.0
 sum -  nocc_ = 0.49370126
 On Iteration in Bisection 2
 a: 0.49370  b:-0.47564

 -0.21348 = (-0.33243 + -0.09454)/2.0
 sum -  nocc_ = 0.00779278
 On Iteration in Bisection 3
 a: 0.00779  b:-0.47564

 -0.27296 = (-0.33243 + -0.21348)/2.0
 sum -  nocc_ = -0.22106252
 On Iteration in Bisection 4
 a: -0.22106  b:-0.47564

 -0.24322 = (-0.27296 + -0.21348)/2.0
 sum -  nocc_ = -0.10379116
 On Iteration in Bisection 5
 a: -0.10379  b:-0.22106

 -0.22835 = (-0.24322 + -0.21348)/2.0
 sum -  nocc_ = -0.04762825
 On Iteration in Bisection 6
 a: -0.04763  b:-0.10379

 -0.22092 = (-0.22835 + -0.21348)/2.0
 sum -  nocc_ = -0.01987791
 On Iteration in Bisection 7
 a: -0.01988  b:-0.04763

 -0.21720 = (-0.22092 + -0.21348)/2.0
 sum -  nocc_ = -0.00603952
 On Iteration in Bisection 8
 a: -0.00604  b:-0.01988

 -0.21534 = (-0.21720 + -0.21348)/2.0
 sum -  nocc_ = 0.00087652
 On Iteration in Bisection 9
 a: 0.00088  b:-0.00604

 -0.21627 = (-0.21720 + -0.21534)/2.0
 sum -  nocc_ = -0.00258142
 On Iteration in Bisection 10
 a: -0.00258  b:-0.00604

 -0.21581 = (-0.21627 + -0.21534)/2.0
 sum -  nocc_ = -0.00085245
 On Iteration in Bisection 11
 a: -0.00085  b:-0.00258

 -0.21557 = (-0.21581 + -0.21534)/2.0
 sum -  nocc_ = 0.00001203
 On Iteration in Bisection 12
 a: 0.00001  b:-0.00085

 -0.21569 = (-0.21581 + -0.21557)/2.0
 sum -  nocc_ = -0.00042021
 On Iteration in Bisection 13
 a: -0.00042  b:-0.00085

 -0.21563 = (-0.21569 + -0.21557)/2.0
 sum -  nocc_ = -0.00020409
 On Iteration in Bisection 14
 a: -0.00020  b:-0.00042

 -0.21560 = (-0.21563 + -0.21557)/2.0
 sum -  nocc_ = -0.00009603
 On Iteration in Bisection 15
 a: -0.00010  b:-0.00020

 -0.21559 = (-0.21560 + -0.21557)/2.0
 sum -  nocc_ = -0.00004200
 On Iteration in Bisection 16
 a: -0.00004  b:-0.00010

 -0.21558 = (-0.21559 + -0.21557)/2.0
 sum -  nocc_ = -0.00001498
 On Iteration in Bisection 17
 a: -0.00001  b:-0.00004

 -0.21558 = (-0.21558 + -0.21557)/2.0
 sum -  nocc_ = -0.00000147
 On Iteration in Bisection 18
 a: -0.00000  b:-0.00001

 -0.21558 = (-0.21558 + -0.21557)/2.0
 sum -  nocc_ = 0.00000528
 On Iteration in Bisection 19
 a: 0.00001  b:-0.00000

 -0.21558 = (-0.21558 + -0.21558)/2.0
 sum -  nocc_ = 0.00000190
 On Iteration in Bisection 20
 a: 0.00000  b:-0.00000

 -0.21558 = (-0.21558 + -0.21558)/2.0
 sum -  nocc_ = 0.00000022
 On Iteration in Bisection 21
 a: 0.00000  b:-0.00000

 -0.21558 = (-0.21558 + -0.21558)/2.0
 sum -  nocc_ = -0.00000063
 On Iteration in Bisection 22
 a: -0.00000  b:-0.00000

 -0.21558 = (-0.21558 + -0.21558)/2.0
 sum -  nocc_ = -0.00000021
 On Iteration in Bisection 23
 a: -0.00000  b:-0.00000

 -0.21558 = (-0.21558 + -0.21558)/2.0
 sum -  nocc_ = 0.00000000
 ef = -0.21558 sum = 1.00000 

 Iter: 6  T:    20000.000  val:-0.215578  sumni 0.00000
 ne = 1.0000

 iter:7  failiter:7  energy:     -1.042214624827  total:     -0.812137577614  error:     -0.003913706169
 In Bisection function HOMO = -0.334  LUMO =  1.570

 0.61825 = (-0.33367 + 1.57017)/2.0
 sum -  nocc_ = 1.75463502
 On Iteration in Bisection 0
 a: 1.75464  b:-0.47654

 0.14229 = (-0.33367 + 0.61825)/2.0
 sum -  nocc_ = 0.97794782
 On Iteration in Bisection 1
 a: 0.97795  b:-0.47654

 -0.09569 = (-0.33367 + 0.14229)/2.0
 sum -  nocc_ = 0.48441313
 On Iteration in Bisection 2
 a: 0.48441  b:-0.47654

 -0.21468 = (-0.33367 + -0.09569)/2.0
 sum -  nocc_ = 0.00335092
 On Iteration in Bisection 3
 a: 0.00335  b:-0.47654

 -0.27417 = (-0.33367 + -0.21468)/2.0
 sum -  nocc_ = -0.22311970
 On Iteration in Bisection 4
 a: -0.22312  b:-0.47654

 -0.24442 = (-0.27417 + -0.21468)/2.0
 sum -  nocc_ = -0.10686827
 On Iteration in Bisection 5
 a: -0.10687  b:-0.22312

 -0.22955 = (-0.24442 + -0.21468)/2.0
 sum -  nocc_ = -0.05134627
 On Iteration in Bisection 6
 a: -0.05135  b:-0.10687

 -0.22211 = (-0.22955 + -0.21468)/2.0
 sum -  nocc_ = -0.02394812
 On Iteration in Bisection 7
 a: -0.02395  b:-0.05135

 -0.21840 = (-0.22211 + -0.21468)/2.0
 sum -  nocc_ = -0.01029324
 On Iteration in Bisection 8
 a: -0.01029  b:-0.02395

 -0.21654 = (-0.21840 + -0.21468)/2.0
 sum -  nocc_ = -0.00347071
 On Iteration in Bisection 9
 a: -0.00347  b:-0.01029

 -0.21561 = (-0.21654 + -0.21468)/2.0
 sum -  nocc_ = -0.00005989
 On Iteration in Bisection 10
 a: -0.00006  b:-0.00347

 -0.21514 = (-0.21561 + -0.21468)/2.0
 sum -  nocc_ = 0.00164550
 On Iteration in Bisection 11
 a: 0.00165  b:-0.00006

 -0.21537 = (-0.21561 + -0.21514)/2.0
 sum -  nocc_ = 0.00079280
 On Iteration in Bisection 12
 a: 0.00079  b:-0.00006

 -0.21549 = (-0.21561 + -0.21537)/2.0
 sum -  nocc_ = 0.00036646
 On Iteration in Bisection 13
 a: 0.00037  b:-0.00006

 -0.21555 = (-0.21561 + -0.21549)/2.0
 sum -  nocc_ = 0.00015328
 On Iteration in Bisection 14
 a: 0.00015  b:-0.00006

 -0.21558 = (-0.21561 + -0.21555)/2.0
 sum -  nocc_ = 0.00004670
 On Iteration in Bisection 15
 a: 0.00005  b:-0.00006

 -0.21559 = (-0.21561 + -0.21558)/2.0
 sum -  nocc_ = -0.00000660
 On Iteration in Bisection 16
 a: -0.00001  b:-0.00006

 -0.21558 = (-0.21559 + -0.21558)/2.0
 sum -  nocc_ = 0.00002005
 On Iteration in Bisection 17
 a: 0.00002  b:-0.00001

 -0.21559 = (-0.21559 + -0.21558)/2.0
 sum -  nocc_ = 0.00000673
 On Iteration in Bisection 18
 a: 0.00001  b:-0.00001

 -0.21559 = (-0.21559 + -0.21559)/2.0
 sum -  nocc_ = 0.00000006
 On Iteration in Bisection 19
 a: 0.00000  b:-0.00001

 -0.21559 = (-0.21559 + -0.21559)/2.0
 sum -  nocc_ = -0.00000327
 On Iteration in Bisection 20
 a: -0.00000  b:-0.00001

 -0.21559 = (-0.21559 + -0.21559)/2.0
 sum -  nocc_ = -0.00000160
 On Iteration in Bisection 21
 a: -0.00000  b:-0.00000

 -0.21559 = (-0.21559 + -0.21559)/2.0
 sum -  nocc_ = -0.00000077
 On Iteration in Bisection 22
 a: -0.00000  b:-0.00000

 -0.21559 = (-0.21559 + -0.21559)/2.0
 sum -  nocc_ = -0.00000035
 On Iteration in Bisection 23
 a: -0.00000  b:-0.00000

 -0.21559 = (-0.21559 + -0.21559)/2.0
 sum -  nocc_ = -0.00000014
 On Iteration in Bisection 24
 a: -0.00000  b:-0.00000

 -0.21559 = (-0.21559 + -0.21559)/2.0
 sum -  nocc_ = -0.00000004
 On Iteration in Bisection 25
 a: -0.00000  b:-0.00000

 -0.21559 = (-0.21559 + -0.21559)/2.0
 sum -  nocc_ = 0.00000001
 On Iteration in Bisection 26
 a: 0.00000  b:-0.00000

 -0.21559 = (-0.21559 + -0.21559)/2.0
 sum -  nocc_ = -0.00000001
 On Iteration in Bisection 27
 a: -0.00000  b:-0.00000

 -0.21559 = (-0.21559 + -0.21559)/2.0
 sum -  nocc_ = -0.00000000
 ef = -0.21559 sum = 1.00000 

 Iter: 7  T:    20000.000  val:-0.215590  sumni 0.00000
 ne = 1.0000

 iter:8  failiter:8  energy:     -1.043836663509  total:     -0.813759616296  error:     -0.001622038682
 In Bisection function HOMO = -0.334  LUMO =  1.570

 0.61796 = (-0.33416 + 1.57008)/2.0
 sum -  nocc_ = 1.75222245
 On Iteration in Bisection 0
 a: 1.75222  b:-0.47690

 0.14190 = (-0.33416 + 0.61796)/2.0
 sum -  nocc_ = 0.97763769
 On Iteration in Bisection 1
 a: 0.97764  b:-0.47690

 -0.09613 = (-0.33416 + 0.14190)/2.0
 sum -  nocc_ = 0.48072745
 On Iteration in Bisection 2
 a: 0.48073  b:-0.47690

 -0.21514 = (-0.33416 + -0.09613)/2.0
 sum -  nocc_ = 0.00162030
 On Iteration in Bisection 3
 a: 0.00162  b:-0.47690

 -0.27465 = (-0.33416 + -0.21514)/2.0
 sum -  nocc_ = -0.22391447
 On Iteration in Bisection 4
 a: -0.22391  b:-0.47690

 -0.24490 = (-0.27465 + -0.21514)/2.0
 sum -  nocc_ = -0.10806123
 On Iteration in Bisection 5
 a: -0.10806  b:-0.22391

 -0.23002 = (-0.24490 + -0.21514)/2.0
 sum -  nocc_ = -0.05279125
 On Iteration in Bisection 6
 a: -0.05279  b:-0.10806

 -0.22258 = (-0.23002 + -0.21514)/2.0
 sum -  nocc_ = -0.02553196
 On Iteration in Bisection 7
 a: -0.02553  b:-0.05279

 -0.21886 = (-0.22258 + -0.21514)/2.0
 sum -  nocc_ = -0.01194952
 On Iteration in Bisection 8
 a: -0.01195  b:-0.02553

 -0.21700 = (-0.21886 + -0.21514)/2.0
 sum -  nocc_ = -0.00516393
 On Iteration in Bisection 9
 a: -0.00516  b:-0.01195

 -0.21607 = (-0.21700 + -0.21514)/2.0
 sum -  nocc_ = -0.00177175
 On Iteration in Bisection 10
 a: -0.00177  b:-0.00516

 -0.21561 = (-0.21607 + -0.21514)/2.0
 sum -  nocc_ = -0.00007572
 On Iteration in Bisection 11
 a: -0.00008  b:-0.00177

 -0.21538 = (-0.21561 + -0.21514)/2.0
 sum -  nocc_ = 0.00077229
 On Iteration in Bisection 12
 a: 0.00077  b:-0.00008

 -0.21549 = (-0.21561 + -0.21538)/2.0
 sum -  nocc_ = 0.00034828
 On Iteration in Bisection 13
 a: 0.00035  b:-0.00008

 -0.21555 = (-0.21561 + -0.21549)/2.0
 sum -  nocc_ = 0.00013628
 On Iteration in Bisection 14
 a: 0.00014  b:-0.00008

 -0.21558 = (-0.21561 + -0.21555)/2.0
 sum -  nocc_ = 0.00003028
 On Iteration in Bisection 15
 a: 0.00003  b:-0.00008

 -0.21559 = (-0.21561 + -0.21558)/2.0
 sum -  nocc_ = -0.00002272
 On Iteration in Bisection 16
 a: -0.00002  b:-0.00008

 -0.21559 = (-0.21559 + -0.21558)/2.0
 sum -  nocc_ = 0.00000378
 On Iteration in Bisection 17
 a: 0.00000  b:-0.00002

 -0.21559 = (-0.21559 + -0.21559)/2.0
 sum -  nocc_ = -0.00000947
 On Iteration in Bisection 18
 a: -0.00001  b:-0.00002

 -0.21559 = (-0.21559 + -0.21559)/2.0
 sum -  nocc_ = -0.00000285
 On Iteration in Bisection 19
 a: -0.00000  b:-0.00001

 -0.21559 = (-0.21559 + -0.21559)/2.0
 sum -  nocc_ = 0.00000046
 On Iteration in Bisection 20
 a: 0.00000  b:-0.00000

 -0.21559 = (-0.21559 + -0.21559)/2.0
 sum -  nocc_ = -0.00000119
 On Iteration in Bisection 21
 a: -0.00000  b:-0.00000

 -0.21559 = (-0.21559 + -0.21559)/2.0
 sum -  nocc_ = -0.00000036
 On Iteration in Bisection 22
 a: -0.00000  b:-0.00000

 -0.21559 = (-0.21559 + -0.21559)/2.0
 sum -  nocc_ = 0.00000005
 On Iteration in Bisection 23
 a: 0.00000  b:-0.00000

 -0.21559 = (-0.21559 + -0.21559)/2.0
 sum -  nocc_ = -0.00000016
 On Iteration in Bisection 24
 a: -0.00000  b:-0.00000

 -0.21559 = (-0.21559 + -0.21559)/2.0
 sum -  nocc_ = -0.00000005
 On Iteration in Bisection 25
 a: -0.00000  b:-0.00000

 -0.21559 = (-0.21559 + -0.21559)/2.0
 sum -  nocc_ = -0.00000000
 ef = -0.21559 sum = 1.00000 

 Iter: 8  T:    20000.000  val:-0.215587  sumni 0.00000
 ne = 1.0000

 iter:9  failiter:9  energy:     -1.044485696126  total:     -0.814408648913  error:     -0.000649032617
 In Bisection function HOMO = -0.334  LUMO =  1.570

 0.61786 = (-0.33435 + 1.57007)/2.0
 sum -  nocc_ = 1.75138654
 On Iteration in Bisection 0
 a: 1.75139  b:-0.47704

 0.14176 = (-0.33435 + 0.61786)/2.0
 sum -  nocc_ = 0.97751598
 On Iteration in Bisection 1
 a: 0.97752  b:-0.47704

 -0.09630 = (-0.33435 + 0.14176)/2.0
 sum -  nocc_ = 0.47927777
 On Iteration in Bisection 2
 a: 0.47928  b:-0.47704

 -0.21532 = (-0.33435 + -0.09630)/2.0
 sum -  nocc_ = 0.00094447
 On Iteration in Bisection 3
 a: 0.00094  b:-0.47704

 -0.27484 = (-0.33435 + -0.21532)/2.0
 sum -  nocc_ = -0.22422363
 On Iteration in Bisection 4
 a: -0.22422  b:-0.47704

 -0.24508 = (-0.27484 + -0.21532)/2.0
 sum -  nocc_ = -0.10852604
 On Iteration in Bisection 5
 a: -0.10853  b:-0.22422

 -0.23020 = (-0.24508 + -0.21532)/2.0
 sum -  nocc_ = -0.05335490
 On Iteration in Bisection 6
 a: -0.05335  b:-0.10853

 -0.22276 = (-0.23020 + -0.21532)/2.0
 sum -  nocc_ = -0.02615013
 On Iteration in Bisection 7
 a: -0.02615  b:-0.05335

 -0.21904 = (-0.22276 + -0.21532)/2.0
 sum -  nocc_ = -0.01259615
 On Iteration in Bisection 8
 a: -0.01260  b:-0.02615

 -0.21718 = (-0.21904 + -0.21532)/2.0
 sum -  nocc_ = -0.00582507
 On Iteration in Bisection 9
 a: -0.00583  b:-0.01260

 -0.21625 = (-0.21718 + -0.21532)/2.0
 sum -  nocc_ = -0.00244022
 On Iteration in Bisection 10
 a: -0.00244  b:-0.00583

 -0.21579 = (-0.21625 + -0.21532)/2.0
 sum -  nocc_ = -0.00074787
 On Iteration in Bisection 11
 a: -0.00075  b:-0.00244

 -0.21556 = (-0.21579 + -0.21532)/2.0
 sum -  nocc_ = 0.00009830
 On Iteration in Bisection 12
 a: 0.00010  b:-0.00075

 -0.21567 = (-0.21579 + -0.21556)/2.0
 sum -  nocc_ = -0.00032479
 On Iteration in Bisection 13
 a: -0.00032  b:-0.00075

 -0.21562 = (-0.21567 + -0.21556)/2.0
 sum -  nocc_ = -0.00011324
 On Iteration in Bisection 14
 a: -0.00011  b:-0.00032

 -0.21559 = (-0.21562 + -0.21556)/2.0
 sum -  nocc_ = -0.00000747
 On Iteration in Bisection 15
 a: -0.00001  b:-0.00011

 -0.21557 = (-0.21559 + -0.21556)/2.0
 sum -  nocc_ = 0.00004541
 On Iteration in Bisection 16
 a: 0.00005  b:-0.00001

 -0.21558 = (-0.21559 + -0.21557)/2.0
 sum -  nocc_ = 0.00001897
 On Iteration in Bisection 17
 a: 0.00002  b:-0.00001

 -0.21558 = (-0.21559 + -0.21558)/2.0
 sum -  nocc_ = 0.00000575
 On Iteration in Bisection 18
 a: 0.00001  b:-0.00001

 -0.21558 = (-0.21559 + -0.21558)/2.0
 sum -  nocc_ = -0.00000086
 On Iteration in Bisection 19
 a: -0.00000  b:-0.00001

 -0.21558 = (-0.21558 + -0.21558)/2.0
 sum -  nocc_ = 0.00000244
 On Iteration in Bisection 20
 a: 0.00000  b:-0.00000

 -0.21558 = (-0.21558 + -0.21558)/2.0
 sum -  nocc_ = 0.00000079
 On Iteration in Bisection 21
 a: 0.00000  b:-0.00000

 -0.21558 = (-0.21558 + -0.21558)/2.0
 sum -  nocc_ = -0.00000004
 On Iteration in Bisection 22
 a: -0.00000  b:-0.00000

 -0.21558 = (-0.21558 + -0.21558)/2.0
 sum -  nocc_ = 0.00000038
 On Iteration in Bisection 23
 a: 0.00000  b:-0.00000

 -0.21558 = (-0.21558 + -0.21558)/2.0
 sum -  nocc_ = 0.00000017
 On Iteration in Bisection 24
 a: 0.00000  b:-0.00000

 -0.21558 = (-0.21558 + -0.21558)/2.0
 sum -  nocc_ = 0.00000007
 On Iteration in Bisection 25
 a: 0.00000  b:-0.00000

 -0.21558 = (-0.21558 + -0.21558)/2.0
 sum -  nocc_ = 0.00000002
 On Iteration in Bisection 26
 a: 0.00000  b:-0.00000

 -0.21558 = (-0.21558 + -0.21558)/2.0
 sum -  nocc_ = -0.00000001
 ef = -0.21558 sum = 1.00000 

 Iter: 9  T:    20000.000  val:-0.215584  sumni 0.00000
 ne = 1.0000

 iter:10  failiter:10  energy:     -1.044741856608  total:     -0.814664809395  error:     -0.000256160482
 In Bisection function HOMO = -0.334  LUMO =  1.570

 0.61782 = (-0.33443 + 1.57008)/2.0
 sum -  nocc_ = 1.75108072
 On Iteration in Bisection 0
 a: 1.75108  b:-0.47709

 0.14170 = (-0.33443 + 0.61782)/2.0
 sum -  nocc_ = 0.97746835
 On Iteration in Bisection 1
 a: 0.97747  b:-0.47709

 -0.09636 = (-0.33443 + 0.14170)/2.0
 sum -  nocc_ = 0.47870931
 On Iteration in Bisection 2
 a: 0.47871  b:-0.47709

 -0.21540 = (-0.33443 + -0.09636)/2.0
 sum -  nocc_ = 0.00068018
 On Iteration in Bisection 3
 a: 0.00068  b:-0.47709

 -0.27491 = (-0.33443 + -0.21540)/2.0
 sum -  nocc_ = -0.22434431
 On Iteration in Bisection 4
 a: -0.22434  b:-0.47709

 -0.24515 = (-0.27491 + -0.21540)/2.0
 sum -  nocc_ = -0.10870761
 On Iteration in Bisection 5
 a: -0.10871  b:-0.22434

 -0.23027 = (-0.24515 + -0.21540)/2.0
 sum -  nocc_ = -0.05357521
 On Iteration in Bisection 6
 a: -0.05358  b:-0.10871

 -0.22283 = (-0.23027 + -0.21540)/2.0
 sum -  nocc_ = -0.02639181
 On Iteration in Bisection 7
 a: -0.02639  b:-0.05358

 -0.21912 = (-0.22283 + -0.21540)/2.0
 sum -  nocc_ = -0.01284898
 On Iteration in Bisection 8
 a: -0.01285  b:-0.02639

 -0.21726 = (-0.21912 + -0.21540)/2.0
 sum -  nocc_ = -0.00608359
 On Iteration in Bisection 9
 a: -0.00608  b:-0.01285

 -0.21633 = (-0.21726 + -0.21540)/2.0
 sum -  nocc_ = -0.00270162
 On Iteration in Bisection 10
 a: -0.00270  b:-0.00608

 -0.21586 = (-0.21633 + -0.21540)/2.0
 sum -  nocc_ = -0.00101071
 On Iteration in Bisection 11
 a: -0.00101  b:-0.00270

 -0.21563 = (-0.21586 + -0.21540)/2.0
 sum -  nocc_ = -0.00016527
 On Iteration in Bisection 12
 a: -0.00017  b:-0.00101

 -0.21551 = (-0.21563 + -0.21540)/2.0
 sum -  nocc_ = 0.00025746
 On Iteration in Bisection 13
 a: 0.00026  b:-0.00017

 -0.21557 = (-0.21563 + -0.21551)/2.0
 sum -  nocc_ = 0.00004610
 On Iteration in Bisection 14
 a: 0.00005  b:-0.00017

 -0.21560 = (-0.21563 + -0.21557)/2.0
 sum -  nocc_ = -0.00005958
 On Iteration in Bisection 15
 a: -0.00006  b:-0.00017

 -0.21558 = (-0.21560 + -0.21557)/2.0
 sum -  nocc_ = -0.00000674
 On Iteration in Bisection 16
 a: -0.00001  b:-0.00006

 -0.21558 = (-0.21558 + -0.21557)/2.0
 sum -  nocc_ = 0.00001968
 On Iteration in Bisection 17
 a: 0.00002  b:-0.00001

 -0.21558 = (-0.21558 + -0.21558)/2.0
 sum -  nocc_ = 0.00000647
 On Iteration in Bisection 18
 a: 0.00001  b:-0.00001

 -0.21558 = (-0.21558 + -0.21558)/2.0
 sum -  nocc_ = -0.00000014
 On Iteration in Bisection 19
 a: -0.00000  b:-0.00001

 -0.21558 = (-0.21558 + -0.21558)/2.0
 sum -  nocc_ = 0.00000316
 On Iteration in Bisection 20
 a: 0.00000  b:-0.00000

 -0.21558 = (-0.21558 + -0.21558)/2.0
 sum -  nocc_ = 0.00000151
 On Iteration in Bisection 21
 a: 0.00000  b:-0.00000

 -0.21558 = (-0.21558 + -0.21558)/2.0
 sum -  nocc_ = 0.00000069
 On Iteration in Bisection 22
 a: 0.00000  b:-0.00000

 -0.21558 = (-0.21558 + -0.21558)/2.0
 sum -  nocc_ = 0.00000027
 On Iteration in Bisection 23
 a: 0.00000  b:-0.00000

 -0.21558 = (-0.21558 + -0.21558)/2.0
 sum -  nocc_ = 0.00000007
 On Iteration in Bisection 24
 a: 0.00000  b:-0.00000

 -0.21558 = (-0.21558 + -0.21558)/2.0
 sum -  nocc_ = -0.00000004
 On Iteration in Bisection 25
 a: -0.00000  b:-0.00000

 -0.21558 = (-0.21558 + -0.21558)/2.0
 sum -  nocc_ = 0.00000002
 On Iteration in Bisection 26
 a: 0.00000  b:-0.00000

 -0.21558 = (-0.21558 + -0.21558)/2.0
 sum -  nocc_ = -0.00000001
 On Iteration in Bisection 27
 a: -0.00000  b:-0.00000

 -0.21558 = (-0.21558 + -0.21558)/2.0
 sum -  nocc_ = 0.00000000
 ef = -0.21558 sum = 1.00000 

 Iter: 10  T:    20000.000  val:-0.215582  sumni 0.00000
 ne = 1.0000

 iter:11  failiter:11  energy:     -1.044842452746  total:     -0.814765405533  error:     -0.000100596138
 In Bisection function HOMO = -0.334  LUMO =  1.570

 0.61781 = (-0.33446 + 1.57008)/2.0
 sum -  nocc_ = 1.75096517
 On Iteration in Bisection 0
 a: 1.75097  b:-0.47711

 0.14168 = (-0.33446 + 0.61781)/2.0
 sum -  nocc_ = 0.97744972
 On Iteration in Bisection 1
 a: 0.97745  b:-0.47711

 -0.09639 = (-0.33446 + 0.14168)/2.0
 sum -  nocc_ = 0.47848663
 On Iteration in Bisection 2
 a: 0.47849  b:-0.47711

 -0.21542 = (-0.33446 + -0.09639)/2.0
 sum -  nocc_ = 0.00057676
 On Iteration in Bisection 3
 a: 0.00058  b:-0.47711

 -0.27494 = (-0.33446 + -0.21542)/2.0
 sum -  nocc_ = -0.22439149
 On Iteration in Bisection 4
 a: -0.22439  b:-0.47711

 -0.24518 = (-0.27494 + -0.21542)/2.0
 sum -  nocc_ = -0.10877863
 On Iteration in Bisection 5
 a: -0.10878  b:-0.22439

 -0.23030 = (-0.24518 + -0.21542)/2.0
 sum -  nocc_ = -0.05366139
 On Iteration in Bisection 6
 a: -0.05366  b:-0.10878

 -0.22286 = (-0.23030 + -0.21542)/2.0
 sum -  nocc_ = -0.02648637
 On Iteration in Bisection 7
 a: -0.02649  b:-0.05366

 -0.21914 = (-0.22286 + -0.21542)/2.0
 sum -  nocc_ = -0.01294792
 On Iteration in Bisection 8
 a: -0.01295  b:-0.02649

 -0.21728 = (-0.21914 + -0.21542)/2.0
 sum -  nocc_ = -0.00618475
 On Iteration in Bisection 9
 a: -0.00618  b:-0.01295

 -0.21635 = (-0.21728 + -0.21542)/2.0
 sum -  nocc_ = -0.00280390
 On Iteration in Bisection 10
 a: -0.00280  b:-0.00618

 -0.21589 = (-0.21635 + -0.21542)/2.0
 sum -  nocc_ = -0.00111356
 On Iteration in Bisection 11
 a: -0.00111  b:-0.00280

 -0.21566 = (-0.21589 + -0.21542)/2.0
 sum -  nocc_ = -0.00026840
 On Iteration in Bisection 12
 a: -0.00027  b:-0.00111

 -0.21554 = (-0.21566 + -0.21542)/2.0
 sum -  nocc_ = 0.00015418
 On Iteration in Bisection 13
 a: 0.00015  b:-0.00027

 -0.21560 = (-0.21566 + -0.21554)/2.0
 sum -  nocc_ = -0.00005711
 On Iteration in Bisection 14
 a: -0.00006  b:-0.00027

 -0.21557 = (-0.21560 + -0.21554)/2.0
 sum -  nocc_ = 0.00004853
 On Iteration in Bisection 15
 a: 0.00005  b:-0.00006

 -0.21558 = (-0.21560 + -0.21557)/2.0
 sum -  nocc_ = -0.00000429
 On Iteration in Bisection 16
 a: -0.00000  b:-0.00006

 -0.21558 = (-0.21558 + -0.21557)/2.0
 sum -  nocc_ = 0.00002212
 On Iteration in Bisection 17
 a: 0.00002  b:-0.00000

 -0.21558 = (-0.21558 + -0.21558)/2.0
 sum -  nocc_ = 0.00000892
 On Iteration in Bisection 18
 a: 0.00001  b:-0.00000

 -0.21558 = (-0.21558 + -0.21558)/2.0
 sum -  nocc_ = 0.00000232
 On Iteration in Bisection 19
 a: 0.00000  b:-0.00000

 -0.21558 = (-0.21558 + -0.21558)/2.0
 sum -  nocc_ = -0.00000099
 On Iteration in Bisection 20
 a: -0.00000  b:-0.00000

 -0.21558 = (-0.21558 + -0.21558)/2.0
 sum -  nocc_ = 0.00000066
 On Iteration in Bisection 21
 a: 0.00000  b:-0.00000

 -0.21558 = (-0.21558 + -0.21558)/2.0
 sum -  nocc_ = -0.00000016
 On Iteration in Bisection 22
 a: -0.00000  b:-0.00000

 -0.21558 = (-0.21558 + -0.21558)/2.0
 sum -  nocc_ = 0.00000025
 On Iteration in Bisection 23
 a: 0.00000  b:-0.00000

 -0.21558 = (-0.21558 + -0.21558)/2.0
 sum -  nocc_ = 0.00000005
 On Iteration in Bisection 24
 a: 0.00000  b:-0.00000

 -0.21558 = (-0.21558 + -0.21558)/2.0
 sum -  nocc_ = -0.00000006
 On Iteration in Bisection 25
 a: -0.00000  b:-0.00000

 -0.21558 = (-0.21558 + -0.21558)/2.0
 sum -  nocc_ = -0.00000001
 ef = -0.21558 sum = 1.00000 

 Iter: 11  T:    20000.000  val:-0.215582  sumni 0.00000
 ne = 1.0000

 iter:12  failiter:12  energy:     -1.044881856552  total:     -0.814804809339  error:     -0.000039403806
 In Bisection function HOMO = -0.334  LUMO =  1.570

 0.61781 = (-0.33447 + 1.57008)/2.0
 sum -  nocc_ = 1.75092074
 On Iteration in Bisection 0
 a: 1.75092  b:-0.47712

 0.14167 = (-0.33447 + 0.61781)/2.0
 sum -  nocc_ = 0.97744243
 On Iteration in Bisection 1
 a: 0.97744  b:-0.47712

 -0.09640 = (-0.33447 + 0.14167)/2.0
 sum -  nocc_ = 0.47839943
 On Iteration in Bisection 2
 a: 0.47840  b:-0.47712

 -0.21543 = (-0.33447 + -0.09640)/2.0
 sum -  nocc_ = 0.00053628
 On Iteration in Bisection 3
 a: 0.00054  b:-0.47712

 -0.27495 = (-0.33447 + -0.21543)/2.0
 sum -  nocc_ = -0.22440996
 On Iteration in Bisection 4
 a: -0.22441  b:-0.47712

 -0.24519 = (-0.27495 + -0.21543)/2.0
 sum -  nocc_ = -0.10880643
 On Iteration in Bisection 5
 a: -0.10881  b:-0.22441

 -0.23031 = (-0.24519 + -0.21543)/2.0
 sum -  nocc_ = -0.05369513
 On Iteration in Bisection 6
 a: -0.05370  b:-0.10881

 -0.22287 = (-0.23031 + -0.21543)/2.0
 sum -  nocc_ = -0.02652338
 On Iteration in Bisection 7
 a: -0.02652  b:-0.05370

 -0.21915 = (-0.22287 + -0.21543)/2.0
 sum -  nocc_ = -0.01298664
 On Iteration in Bisection 8
 a: -0.01299  b:-0.02652

 -0.21729 = (-0.21915 + -0.21543)/2.0
 sum -  nocc_ = -0.00622435
 On Iteration in Bisection 9
 a: -0.00622  b:-0.01299

 -0.21636 = (-0.21729 + -0.21543)/2.0
 sum -  nocc_ = -0.00284394
 On Iteration in Bisection 10
 a: -0.00284  b:-0.00622

 -0.21590 = (-0.21636 + -0.21543)/2.0
 sum -  nocc_ = -0.00115382
 On Iteration in Bisection 11
 a: -0.00115  b:-0.00284

 -0.21567 = (-0.21590 + -0.21543)/2.0
 sum -  nocc_ = -0.00030877
 On Iteration in Bisection 12
 a: -0.00031  b:-0.00115

 -0.21555 = (-0.21567 + -0.21543)/2.0
 sum -  nocc_ = 0.00011375
 On Iteration in Bisection 13
 a: 0.00011  b:-0.00031

 -0.21561 = (-0.21567 + -0.21555)/2.0
 sum -  nocc_ = -0.00009751
 On Iteration in Bisection 14
 a: -0.00010  b:-0.00031

 -0.21558 = (-0.21561 + -0.21555)/2.0
 sum -  nocc_ = 0.00000812
 On Iteration in Bisection 15
 a: 0.00001  b:-0.00010

 -0.21559 = (-0.21561 + -0.21558)/2.0
 sum -  nocc_ = -0.00004469
 On Iteration in Bisection 16
 a: -0.00004  b:-0.00010

 -0.21559 = (-0.21559 + -0.21558)/2.0
 sum -  nocc_ = -0.00001829
 On Iteration in Bisection 17
 a: -0.00002  b:-0.00004

 -0.21558 = (-0.21559 + -0.21558)/2.0
 sum -  nocc_ = -0.00000508
 On Iteration in Bisection 18
 a: -0.00001  b:-0.00002

 -0.21558 = (-0.21558 + -0.21558)/2.0
 sum -  nocc_ = 0.00000152
 On Iteration in Bisection 19
 a: 0.00000  b:-0.00001

 -0.21558 = (-0.21558 + -0.21558)/2.0
 sum -  nocc_ = -0.00000178
 On Iteration in Bisection 20
 a: -0.00000  b:-0.00001

 -0.21558 = (-0.21558 + -0.21558)/2.0
 sum -  nocc_ = -0.00000013
 On Iteration in Bisection 21
 a: -0.00000  b:-0.00000

 -0.21558 = (-0.21558 + -0.21558)/2.0
 sum -  nocc_ = 0.00000069
 On Iteration in Bisection 22
 a: 0.00000  b:-0.00000

 -0.21558 = (-0.21558 + -0.21558)/2.0
 sum -  nocc_ = 0.00000028
 On Iteration in Bisection 23
 a: 0.00000  b:-0.00000

 -0.21558 = (-0.21558 + -0.21558)/2.0
 sum -  nocc_ = 0.00000008
 On Iteration in Bisection 24
[...]

 -0.21558 = (-0.21558 + -0.21558)/2.0
 sum -  nocc_ = -0.00000014
 On Iteration in Bisection 23
 a: -0.00000  b:-0.00000

 -0.21558 = (-0.21558 + -0.21558)/2.0
 sum -  nocc_ = 0.00000007
 On Iteration in Bisection 24
 a: 0.00000  b:-0.00000

 -0.21558 = (-0.21558 + -0.21558)/2.0
 sum -  nocc_ = -0.00000004
 On Iteration in Bisection 25
 a: -0.00000  b:-0.00000

 -0.21558 = (-0.21558 + -0.21558)/2.0
 sum -  nocc_ = 0.00000002
 On Iteration in Bisection 26
 a: 0.00000  b:-0.00000

 -0.21558 = (-0.21558 + -0.21558)/2.0
 sum -  nocc_ = -0.00000001
 On Iteration in Bisection 27
 a: -0.00000  b:-0.00000

 -0.21558 = (-0.21558 + -0.21558)/2.0
 sum -  nocc_ = 0.00000000
 ef = -0.21558 sum = 1.00000 

 Iter: 26  T:    20000.000  val:-0.215581  sumni 0.00000
 ne = 1.0000

 iter:27  failiter:27  energy:     -1.044907237463  total:     -0.814830190250  error:     -0.000000000068
 In Bisection function HOMO = -0.334  LUMO =  1.570

 0.61780 = (-0.33448 + 1.57008)/2.0
 sum -  nocc_ = 1.75089247
 On Iteration in Bisection 0
 a: 1.75089  b:-0.47713

 0.14166 = (-0.33448 + 0.61780)/2.0
 sum -  nocc_ = 0.97743775
 On Iteration in Bisection 1
 a: 0.97744  b:-0.47713

 -0.09641 = (-0.33448 + 0.14166)/2.0
 sum -  nocc_ = 0.47834332
 On Iteration in Bisection 2
 a: 0.47834  b:-0.47713

 -0.21544 = (-0.33448 + -0.09641)/2.0
 sum -  nocc_ = 0.00051023
 On Iteration in Bisection 3
 a: 0.00051  b:-0.47713

 -0.27496 = (-0.33448 + -0.21544)/2.0
 sum -  nocc_ = -0.22442184
 On Iteration in Bisection 4
 a: -0.22442  b:-0.47713

 -0.24520 = (-0.27496 + -0.21544)/2.0
 sum -  nocc_ = -0.10882431
 On Iteration in Bisection 5
 a: -0.10882  b:-0.22442

 -0.23032 = (-0.24520 + -0.21544)/2.0
 sum -  nocc_ = -0.05371683
 On Iteration in Bisection 6
 a: -0.05372  b:-0.10882

 -0.22288 = (-0.23032 + -0.21544)/2.0
 sum -  nocc_ = -0.02654720
 On Iteration in Bisection 7
 a: -0.02655  b:-0.05372

 -0.21916 = (-0.22288 + -0.21544)/2.0
 sum -  nocc_ = -0.01301156
 On Iteration in Bisection 8
 a: -0.01301  b:-0.02655

 -0.21730 = (-0.21916 + -0.21544)/2.0
 sum -  nocc_ = -0.00624983
 On Iteration in Bisection 9
 a: -0.00625  b:-0.01301

 -0.21637 = (-0.21730 + -0.21544)/2.0
 sum -  nocc_ = -0.00286970
 On Iteration in Bisection 10
 a: -0.00287  b:-0.00625

 -0.21591 = (-0.21637 + -0.21544)/2.0
 sum -  nocc_ = -0.00117973
 On Iteration in Bisection 11
 a: -0.00118  b:-0.00287

 -0.21567 = (-0.21591 + -0.21544)/2.0
 sum -  nocc_ = -0.00033475
 On Iteration in Bisection 12
 a: -0.00033  b:-0.00118

 -0.21556 = (-0.21567 + -0.21544)/2.0
 sum -  nocc_ = 0.00008774
 On Iteration in Bisection 13
 a: 0.00009  b:-0.00033

 -0.21562 = (-0.21567 + -0.21556)/2.0
 sum -  nocc_ = -0.00012350
 On Iteration in Bisection 14
 a: -0.00012  b:-0.00033

 -0.21559 = (-0.21562 + -0.21556)/2.0
 sum -  nocc_ = -0.00001788
 On Iteration in Bisection 15
 a: -0.00002  b:-0.00012

 -0.21557 = (-0.21559 + -0.21556)/2.0
 sum -  nocc_ = 0.00003493
 On Iteration in Bisection 16
 a: 0.00003  b:-0.00002

 -0.21558 = (-0.21559 + -0.21557)/2.0
 sum -  nocc_ = 0.00000852
 On Iteration in Bisection 17
 a: 0.00001  b:-0.00002

 -0.21558 = (-0.21559 + -0.21558)/2.0
 sum -  nocc_ = -0.00000468
 On Iteration in Bisection 18
 a: -0.00000  b:-0.00002

 -0.21558 = (-0.21558 + -0.21558)/2.0
 sum -  nocc_ = 0.00000192
 On Iteration in Bisection 19
 a: 0.00000  b:-0.00000

 -0.21558 = (-0.21558 + -0.21558)/2.0
 sum -  nocc_ = -0.00000138
 On Iteration in Bisection 20
 a: -0.00000  b:-0.00000

 -0.21558 = (-0.21558 + -0.21558)/2.0
 sum -  nocc_ = 0.00000027
 On Iteration in Bisection 21
 a: 0.00000  b:-0.00000

 -0.21558 = (-0.21558 + -0.21558)/2.0
 sum -  nocc_ = -0.00000055
 On Iteration in Bisection 22
 a: -0.00000  b:-0.00000

 -0.21558 = (-0.21558 + -0.21558)/2.0
 sum -  nocc_ = -0.00000014
 On Iteration in Bisection 23
 a: -0.00000  b:-0.00000

 -0.21558 = (-0.21558 + -0.21558)/2.0
 sum -  nocc_ = 0.00000007
 On Iteration in Bisection 24
 a: 0.00000  b:-0.00000

 -0.21558 = (-0.21558 + -0.21558)/2.0
 sum -  nocc_ = -0.00000004
 On Iteration in Bisection 25
 a: -0.00000  b:-0.00000

 -0.21558 = (-0.21558 + -0.21558)/2.0
 sum -  nocc_ = 0.00000002
 On Iteration in Bisection 26
 a: 0.00000  b:-0.00000

 -0.21558 = (-0.21558 + -0.21558)/2.0
 sum -  nocc_ = -0.00000001
 On Iteration in Bisection 27
 a: -0.00000  b:-0.00000

 -0.21558 = (-0.21558 + -0.21558)/2.0
 sum -  nocc_ = 0.00000000
 ef = -0.21558 sum = 1.00000 

 Iter: 27  T:    20000.000  val:-0.215581  sumni 0.00000
 ne = 1.0000

 iter:28  failiter:28  energy:     -1.044907237488  total:     -0.814830190275  error:     -0.000000000025
 In Bisection function HOMO = -0.334  LUMO =  1.570

 0.61780 = (-0.33448 + 1.57008)/2.0
 sum -  nocc_ = 1.75089247
 On Iteration in Bisection 0
 a: 1.75089  b:-0.47713

 0.14166 = (-0.33448 + 0.61780)/2.0
 sum -  nocc_ = 0.97743775
 On Iteration in Bisection 1
 a: 0.97744  b:-0.47713

 -0.09641 = (-0.33448 + 0.14166)/2.0
 sum -  nocc_ = 0.47834332
 On Iteration in Bisection 2
 a: 0.47834  b:-0.47713

 -0.21544 = (-0.33448 + -0.09641)/2.0
 sum -  nocc_ = 0.00051023
 On Iteration in Bisection 3
 a: 0.00051  b:-0.47713

 -0.27496 = (-0.33448 + -0.21544)/2.0
 sum -  nocc_ = -0.22442184
 On Iteration in Bisection 4
 a: -0.22442  b:-0.47713

 -0.24520 = (-0.27496 + -0.21544)/2.0
 sum -  nocc_ = -0.10882431
 On Iteration in Bisection 5
 a: -0.10882  b:-0.22442

 -0.23032 = (-0.24520 + -0.21544)/2.0
 sum -  nocc_ = -0.05371683
 On Iteration in Bisection 6
 a: -0.05372  b:-0.10882

 -0.22288 = (-0.23032 + -0.21544)/2.0
 sum -  nocc_ = -0.02654720
 On Iteration in Bisection 7
 a: -0.02655  b:-0.05372

 -0.21916 = (-0.22288 + -0.21544)/2.0
 sum -  nocc_ = -0.01301156
 On Iteration in Bisection 8
 a: -0.01301  b:-0.02655

 -0.21730 = (-0.21916 + -0.21544)/2.0
 sum -  nocc_ = -0.00624983
 On Iteration in Bisection 9
 a: -0.00625  b:-0.01301

 -0.21637 = (-0.21730 + -0.21544)/2.0
 sum -  nocc_ = -0.00286970
 On Iteration in Bisection 10
 a: -0.00287  b:-0.00625

 -0.21591 = (-0.21637 + -0.21544)/2.0
 sum -  nocc_ = -0.00117973
 On Iteration in Bisection 11
 a: -0.00118  b:-0.00287

 -0.21567 = (-0.21591 + -0.21544)/2.0
 sum -  nocc_ = -0.00033475
 On Iteration in Bisection 12
 a: -0.00033  b:-0.00118

 -0.21556 = (-0.21567 + -0.21544)/2.0
 sum -  nocc_ = 0.00008774
 On Iteration in Bisection 13
 a: 0.00009  b:-0.00033

 -0.21562 = (-0.21567 + -0.21556)/2.0
 sum -  nocc_ = -0.00012350
 On Iteration in Bisection 14
 a: -0.00012  b:-0.00033

 -0.21559 = (-0.21562 + -0.21556)/2.0
 sum -  nocc_ = -0.00001788
 On Iteration in Bisection 15
 a: -0.00002  b:-0.00012

 -0.21557 = (-0.21559 + -0.21556)/2.0
 sum -  nocc_ = 0.00003493
 On Iteration in Bisection 16
 a: 0.00003  b:-0.00002

 -0.21558 = (-0.21559 + -0.21557)/2.0
 sum -  nocc_ = 0.00000852
 On Iteration in Bisection 17
 a: 0.00001  b:-0.00002

 -0.21558 = (-0.21559 + -0.21558)/2.0
 sum -  nocc_ = -0.00000468
 On Iteration in Bisection 18
 a: -0.00000  b:-0.00002

 -0.21558 = (-0.21558 + -0.21558)/2.0
 sum -  nocc_ = 0.00000192
 On Iteration in Bisection 19
 a: 0.00000  b:-0.00000

 -0.21558 = (-0.21558 + -0.21558)/2.0
 sum -  nocc_ = -0.00000138
 On Iteration in Bisection 20
 a: -0.00000  b:-0.00000

 -0.21558 = (-0.21558 + -0.21558)/2.0
 sum -  nocc_ = 0.00000027
 On Iteration in Bisection 21
 a: 0.00000  b:-0.00000

 -0.21558 = (-0.21558 + -0.21558)/2.0
 sum -  nocc_ = -0.00000055
 On Iteration in Bisection 22
 a: -0.00000  b:-0.00000

 -0.21558 = (-0.21558 + -0.21558)/2.0
 sum -  nocc_ = -0.00000014
 On Iteration in Bisection 23
 a: -0.00000  b:-0.00000

 -0.21558 = (-0.21558 + -0.21558)/2.0
 sum -  nocc_ = 0.00000007
 On Iteration in Bisection 24
 a: 0.00000  b:-0.00000

 -0.21558 = (-0.21558 + -0.21558)/2.0
 sum -  nocc_ = -0.00000004
 On Iteration in Bisection 25
 a: -0.00000  b:-0.00000

 -0.21558 = (-0.21558 + -0.21558)/2.0
 sum -  nocc_ = 0.00000002
 On Iteration in Bisection 26
 a: 0.00000  b:-0.00000

 -0.21558 = (-0.21558 + -0.21558)/2.0
 sum -  nocc_ = -0.00000001
 On Iteration in Bisection 27
 a: -0.00000  b:-0.00000

 -0.21558 = (-0.21558 + -0.21558)/2.0
 sum -  nocc_ = 0.00000000
 ef = -0.21558 sum = 1.00000 

 Iter: 28  T:    20000.000  val:-0.215581  sumni 0.00000
 ne = 1.0000

 iter:29  failiter:29  energy:     -1.044907237496  total:     -0.814830190283  error:     -0.000000000008
 In Bisection function HOMO = -0.334  LUMO =  1.570

 0.61780 = (-0.33448 + 1.57008)/2.0
 sum -  nocc_ = 1.75089247
 On Iteration in Bisection 0
 a: 1.75089  b:-0.47713

 0.14166 = (-0.33448 + 0.61780)/2.0
 sum -  nocc_ = 0.97743775
 On Iteration in Bisection 1
 a: 0.97744  b:-0.47713

 -0.09641 = (-0.33448 + 0.14166)/2.0
 sum -  nocc_ = 0.47834332
 On Iteration in Bisection 2
 a: 0.47834  b:-0.47713

 -0.21544 = (-0.33448 + -0.09641)/2.0
 sum -  nocc_ = 0.00051023
 On Iteration in Bisection 3
 a: 0.00051  b:-0.47713

 -0.27496 = (-0.33448 + -0.21544)/2.0
 sum -  nocc_ = -0.22442184
 On Iteration in Bisection 4
 a: -0.22442  b:-0.47713

 -0.24520 = (-0.27496 + -0.21544)/2.0
 sum -  nocc_ = -0.10882431
 On Iteration in Bisection 5
 a: -0.10882  b:-0.22442

 -0.23032 = (-0.24520 + -0.21544)/2.0
 sum -  nocc_ = -0.05371683
 On Iteration in Bisection 6
 a: -0.05372  b:-0.10882

 -0.22288 = (-0.23032 + -0.21544)/2.0
 sum -  nocc_ = -0.02654720
 On Iteration in Bisection 7
 a: -0.02655  b:-0.05372

 -0.21916 = (-0.22288 + -0.21544)/2.0
 sum -  nocc_ = -0.01301156
 On Iteration in Bisection 8
 a: -0.01301  b:-0.02655

 -0.21730 = (-0.21916 + -0.21544)/2.0
 sum -  nocc_ = -0.00624983
 On Iteration in Bisection 9
 a: -0.00625  b:-0.01301

 -0.21637 = (-0.21730 + -0.21544)/2.0
 sum -  nocc_ = -0.00286970
 On Iteration in Bisection 10
 a: -0.00287  b:-0.00625

 -0.21591 = (-0.21637 + -0.21544)/2.0
 sum -  nocc_ = -0.00117973
 On Iteration in Bisection 11
 a: -0.00118  b:-0.00287

 -0.21567 = (-0.21591 + -0.21544)/2.0
 sum -  nocc_ = -0.00033475
 On Iteration in Bisection 12
 a: -0.00033  b:-0.00118

 -0.21556 = (-0.21567 + -0.21544)/2.0
 sum -  nocc_ = 0.00008774
 On Iteration in Bisection 13
 a: 0.00009  b:-0.00033

 -0.21562 = (-0.21567 + -0.21556)/2.0
 sum -  nocc_ = -0.00012350
 On Iteration in Bisection 14
 a: -0.00012  b:-0.00033

 -0.21559 = (-0.21562 + -0.21556)/2.0
 sum -  nocc_ = -0.00001788
 On Iteration in Bisection 15
 a: -0.00002  b:-0.00012

 -0.21557 = (-0.21559 + -0.21556)/2.0
 sum -  nocc_ = 0.00003493
 On Iteration in Bisection 16
 a: 0.00003  b:-0.00002

 -0.21558 = (-0.21559 + -0.21557)/2.0
 sum -  nocc_ = 0.00000852
 On Iteration in Bisection 17
 a: 0.00001  b:-0.00002

 -0.21558 = (-0.21559 + -0.21558)/2.0
 sum -  nocc_ = -0.00000468
 On Iteration in Bisection 18
 a: -0.00000  b:-0.00002

 -0.21558 = (-0.21558 + -0.21558)/2.0
 sum -  nocc_ = 0.00000192
 On Iteration in Bisection 19
 a: 0.00000  b:-0.00000

 -0.21558 = (-0.21558 + -0.21558)/2.0
 sum -  nocc_ = -0.00000138
 On Iteration in Bisection 20
 a: -0.00000  b:-0.00000

 -0.21558 = (-0.21558 + -0.21558)/2.0
 sum -  nocc_ = 0.00000027
 On Iteration in Bisection 21
 a: 0.00000  b:-0.00000

 -0.21558 = (-0.21558 + -0.21558)/2.0
 sum -  nocc_ = -0.00000055
 On Iteration in Bisection 22
 a: -0.00000  b:-0.00000

 -0.21558 = (-0.21558 + -0.21558)/2.0
 sum -  nocc_ = -0.00000014
 On Iteration in Bisection 23
 a: -0.00000  b:-0.00000

 -0.21558 = (-0.21558 + -0.21558)/2.0
 sum -  nocc_ = 0.00000007
 On Iteration in Bisection 24
 a: 0.00000  b:-0.00000

 -0.21558 = (-0.21558 + -0.21558)/2.0
 sum -  nocc_ = -0.00000004
 On Iteration in Bisection 25
 a: -0.00000  b:-0.00000

 -0.21558 = (-0.21558 + -0.21558)/2.0
 sum -  nocc_ = 0.00000002
 On Iteration in Bisection 26
 a: 0.00000  b:-0.00000

 -0.21558 = (-0.21558 + -0.21558)/2.0
 sum -  nocc_ = -0.00000001
 On Iteration in Bisection 27
 a: -0.00000  b:-0.00000

 -0.21558 = (-0.21558 + -0.21558)/2.0
 sum -  nocc_ = 0.00000000
 ef = -0.21558 sum = 1.00000 

 Iter: 29  T:    20000.000  val:-0.215581  sumni 0.00000
 ne = 1.0000

 iter:30  failiter:30  energy:     -1.044907237499  total:     -0.814830190286  error:     -0.000000000003
 In Bisection function HOMO = -0.334  LUMO =  1.570

 0.61780 = (-0.33448 + 1.57008)/2.0
 sum -  nocc_ = 1.75089247
 On Iteration in Bisection 0
 a: 1.75089  b:-0.47713

 0.14166 = (-0.33448 + 0.61780)/2.0
 sum -  nocc_ = 0.97743775
 On Iteration in Bisection 1
 a: 0.97744  b:-0.47713

 -0.09641 = (-0.33448 + 0.14166)/2.0
 sum -  nocc_ = 0.47834332
 On Iteration in Bisection 2
 a: 0.47834  b:-0.47713

 -0.21544 = (-0.33448 + -0.09641)/2.0
 sum -  nocc_ = 0.00051023
 On Iteration in Bisection 3
 a: 0.00051  b:-0.47713

 -0.27496 = (-0.33448 + -0.21544)/2.0
 sum -  nocc_ = -0.22442184
 On Iteration in Bisection 4
 a: -0.22442  b:-0.47713

 -0.24520 = (-0.27496 + -0.21544)/2.0
 sum -  nocc_ = -0.10882431
 On Iteration in Bisection 5
 a: -0.10882  b:-0.22442

 -0.23032 = (-0.24520 + -0.21544)/2.0
 sum -  nocc_ = -0.05371683
 On Iteration in Bisection 6
 a: -0.05372  b:-0.10882

 -0.22288 = (-0.23032 + -0.21544)/2.0
 sum -  nocc_ = -0.02654720
 On Iteration in Bisection 7
 a: -0.02655  b:-0.05372

 -0.21916 = (-0.22288 + -0.21544)/2.0
 sum -  nocc_ = -0.01301156
 On Iteration in Bisection 8
 a: -0.01301  b:-0.02655

 -0.21730 = (-0.21916 + -0.21544)/2.0
 sum -  nocc_ = -0.00624983
 On Iteration in Bisection 9
 a: -0.00625  b:-0.01301

 -0.21637 = (-0.21730 + -0.21544)/2.0
 sum -  nocc_ = -0.00286970
 On Iteration in Bisection 10
 a: -0.00287  b:-0.00625

 -0.21591 = (-0.21637 + -0.21544)/2.0
 sum -  nocc_ = -0.00117973
 On Iteration in Bisection 11
 a: -0.00118  b:-0.00287

 -0.21567 = (-0.21591 + -0.21544)/2.0
 sum -  nocc_ = -0.00033475
 On Iteration in Bisection 12
 a: -0.00033  b:-0.00118

 -0.21556 = (-0.21567 + -0.21544)/2.0
 sum -  nocc_ = 0.00008774
 On Iteration in Bisection 13
 a: 0.00009  b:-0.00033

 -0.21562 = (-0.21567 + -0.21556)/2.0
 sum -  nocc_ = -0.00012350
 On Iteration in Bisection 14
 a: -0.00012  b:-0.00033

 -0.21559 = (-0.21562 + -0.21556)/2.0
 sum -  nocc_ = -0.00001788
 On Iteration in Bisection 15
 a: -0.00002  b:-0.00012

 -0.21557 = (-0.21559 + -0.21556)/2.0
 sum -  nocc_ = 0.00003493
 On Iteration in Bisection 16
 a: 0.00003  b:-0.00002

 -0.21558 = (-0.21559 + -0.21557)/2.0
 sum -  nocc_ = 0.00000852
 On Iteration in Bisection 17
 a: 0.00001  b:-0.00002

 -0.21558 = (-0.21559 + -0.21558)/2.0
 sum -  nocc_ = -0.00000468
 On Iteration in Bisection 18
 a: -0.00000  b:-0.00002

 -0.21558 = (-0.21558 + -0.21558)/2.0
 sum -  nocc_ = 0.00000192
 On Iteration in Bisection 19
 a: 0.00000  b:-0.00000

 -0.21558 = (-0.21558 + -0.21558)/2.0
 sum -  nocc_ = -0.00000138
 On Iteration in Bisection 20
 a: -0.00000  b:-0.00000

 -0.21558 = (-0.21558 + -0.21558)/2.0
 sum -  nocc_ = 0.00000027
 On Iteration in Bisection 21
 a: 0.00000  b:-0.00000

 -0.21558 = (-0.21558 + -0.21558)/2.0
 sum -  nocc_ = -0.00000055
 On Iteration in Bisection 22
 a: -0.00000  b:-0.00000

 -0.21558 = (-0.21558 + -0.21558)/2.0
 sum -  nocc_ = -0.00000014
 On Iteration in Bisection 23
 a: -0.00000  b:-0.00000

 -0.21558 = (-0.21558 + -0.21558)/2.0
 sum -  nocc_ = 0.00000007
 On Iteration in Bisection 24
 a: 0.00000  b:-0.00000

 -0.21558 = (-0.21558 + -0.21558)/2.0
 sum -  nocc_ = -0.00000004
 On Iteration in Bisection 25
 a: -0.00000  b:-0.00000

 -0.21558 = (-0.21558 + -0.21558)/2.0
 sum -  nocc_ = 0.00000002
 On Iteration in Bisection 26
 a: 0.00000  b:-0.00000

 -0.21558 = (-0.21558 + -0.21558)/2.0
 sum -  nocc_ = -0.00000001
 On Iteration in Bisection 27
 a: -0.00000  b:-0.00000

 -0.21558 = (-0.21558 + -0.21558)/2.0
 sum -  nocc_ = 0.00000000
 ef = -0.21558 sum = 1.00000 

 Iter: 30  T:    20000.000  val:-0.215581  sumni 0.00000
 ne = 1.0000

 iter:31  failiter:31  energy:     -1.044907237500  total:     -0.814830190287  error:     -0.000000000001
 In Bisection function HOMO = -0.334  LUMO =  1.570

 0.61780 = (-0.33448 + 1.57008)/2.0
 sum -  nocc_ = 1.75089247
 On Iteration in Bisection 0
 a: 1.75089  b:-0.47713

 0.14166 = (-0.33448 + 0.61780)/2.0
 sum -  nocc_ = 0.97743775
 On Iteration in Bisection 1
 a: 0.97744  b:-0.47713

 -0.09641 = (-0.33448 + 0.14166)/2.0
 sum -  nocc_ = 0.47834332
 On Iteration in Bisection 2
 a: 0.47834  b:-0.47713

 -0.21544 = (-0.33448 + -0.09641)/2.0
 sum -  nocc_ = 0.00051023
 On Iteration in Bisection 3
 a: 0.00051  b:-0.47713

 -0.27496 = (-0.33448 + -0.21544)/2.0
 sum -  nocc_ = -0.22442184
 On Iteration in Bisection 4
 a: -0.22442  b:-0.47713

 -0.24520 = (-0.27496 + -0.21544)/2.0
 sum -  nocc_ = -0.10882431
 On Iteration in Bisection 5
 a: -0.10882  b:-0.22442

 -0.23032 = (-0.24520 + -0.21544)/2.0
 sum -  nocc_ = -0.05371683
 On Iteration in Bisection 6
 a: -0.05372  b:-0.10882

 -0.22288 = (-0.23032 + -0.21544)/2.0
 sum -  nocc_ = -0.02654720
 On Iteration in Bisection 7
 a: -0.02655  b:-0.05372

 -0.21916 = (-0.22288 + -0.21544)/2.0
 sum -  nocc_ = -0.01301156
 On Iteration in Bisection 8
 a: -0.01301  b:-0.02655

 -0.21730 = (-0.21916 + -0.21544)/2.0
 sum -  nocc_ = -0.00624983
 On Iteration in Bisection 9
 a: -0.00625  b:-0.01301

 -0.21637 = (-0.21730 + -0.21544)/2.0
 sum -  nocc_ = -0.00286970
 On Iteration in Bisection 10
 a: -0.00287  b:-0.00625

 -0.21591 = (-0.21637 + -0.21544)/2.0
 sum -  nocc_ = -0.00117973
 On Iteration in Bisection 11
 a: -0.00118  b:-0.00287

 -0.21567 = (-0.21591 + -0.21544)/2.0
 sum -  nocc_ = -0.00033475
 On Iteration in Bisection 12
 a: -0.00033  b:-0.00118

 -0.21556 = (-0.21567 + -0.21544)/2.0
 sum -  nocc_ = 0.00008774
 On Iteration in Bisection 13
 a: 0.00009  b:-0.00033

 -0.21562 = (-0.21567 + -0.21556)/2.0
 sum -  nocc_ = -0.00012350
 On Iteration in Bisection 14
 a: -0.00012  b:-0.00033

 -0.21559 = (-0.21562 + -0.21556)/2.0
 sum -  nocc_ = -0.00001788
 On Iteration in Bisection 15
 a: -0.00002  b:-0.00012

 -0.21557 = (-0.21559 + -0.21556)/2.0
 sum -  nocc_ = 0.00003493
 On Iteration in Bisection 16
 a: 0.00003  b:-0.00002

 -0.21558 = (-0.21559 + -0.21557)/2.0
 sum -  nocc_ = 0.00000852
 On Iteration in Bisection 17
 a: 0.00001  b:-0.00002

 -0.21558 = (-0.21559 + -0.21558)/2.0
 sum -  nocc_ = -0.00000468
 On Iteration in Bisection 18
 a: -0.00000  b:-0.00002

 -0.21558 = (-0.21558 + -0.21558)/2.0
 sum -  nocc_ = 0.00000192
 On Iteration in Bisection 19
 a: 0.00000  b:-0.00000

 -0.21558 = (-0.21558 + -0.21558)/2.0
 sum -  nocc_ = -0.00000138
 On Iteration in Bisection 20
 a: -0.00000  b:-0.00000

 -0.21558 = (-0.21558 + -0.21558)/2.0
 sum -  nocc_ = 0.00000027
 On Iteration in Bisection 21
 a: 0.00000  b:-0.00000

 -0.21558 = (-0.21558 + -0.21558)/2.0
 sum -  nocc_ = -0.00000055
 On Iteration in Bisection 22
 a: -0.00000  b:-0.00000

 -0.21558 = (-0.21558 + -0.21558)/2.0
 sum -  nocc_ = -0.00000014
 On Iteration in Bisection 23
 a: -0.00000  b:-0.00000

 -0.21558 = (-0.21558 + -0.21558)/2.0
 sum -  nocc_ = 0.00000007
 On Iteration in Bisection 24
 a: 0.00000  b:-0.00000

 -0.21558 = (-0.21558 + -0.21558)/2.0
 sum -  nocc_ = -0.00000004
 On Iteration in Bisection 25
 a: -0.00000  b:-0.00000

 -0.21558 = (-0.21558 + -0.21558)/2.0
 sum -  nocc_ = 0.00000002
 On Iteration in Bisection 26
 a: 0.00000  b:-0.00000

 -0.21558 = (-0.21558 + -0.21558)/2.0
 sum -  nocc_ = -0.00000001
 On Iteration in Bisection 27
 a: -0.00000  b:-0.00000

 -0.21558 = (-0.21558 + -0.21558)/2.0
 sum -  nocc_ = 0.00000000
 ef = -0.21558 sum = 1.00000 

 Iter: 31  T:    20000.000  val:-0.215581  sumni 0.00000
 ne = 1.0000

 iter:32  failiter:32  energy:     -1.044907237500  total:     -0.814830190287  error:     -0.000000000000
 FTHFEnergy =    -0.814830
 FD_dis[0] = 0.86730116 with -0.334476 eig value
 FD_dis[1] = 0.13269651 with -0.096685 eig value
 FD_dis[2] = 0.00000133 with 0.641108 eig value
 FD_dis[3] = 0.00000100 with 0.659284 eig value
 FD_dis[4] = 0.00000000 with 1.426409 eig value
 FD_dis[5] = 0.00000000 with 1.462192 eig value
 FD_dis[6] = 0.00000000 with 1.462192 eig value
 FD_dis[7] = 0.00000000 with 1.476283 eig value
 FD_dis[8] = 0.00000000 with 1.476283 eig value
 FD_dis[9] = 0.00000000 with 1.570081 eig value
*** PSI4 exiting successfully. Buy a developer a beer!
