    -----------------------------------------------------------------------
          PSI4: An Open-Source Ab Initio Electronic Structure Package
                              PSI 4.0 Driver

               Git: Rev {master} 556e8139d3cfa1f96ccffe2cdf22cc56a185d2b2

    J. M. Turney, A. C. Simmonett, R. M. Parrish, E. G. Hohenstein,
    F. A. Evangelista, J. T. Fermann, B. J. Mintz, L. A. Burns, J. J. Wilke,
    M. L. Abrams, N. J. Russ, M. L. Leininger, C. L. Janssen, E. T. Seidl,
    W. D. Allen, H. F. Schaefer, R. A. King, E. F. Valeev, C. D. Sherrill,
    and T. D. Crawford, WIREs Comput. Mol. Sci. 2, 556-565 (2012)
    (doi: 10.1002/wcms.93)

                         Additional Contributions by
    A. E. DePrince, M. Saitow, U. Bozkaya, A. Yu. Sokolov
    -----------------------------------------------------------------------

    Process ID:  11948
    PSI4DATADIR: /Users/kevinhannon/Programs/psi4cmake/psi4/lib
    Memory level set to 256.000 MB

  ==> Input File <==

--------------------------------------------------------------------------

# PYTHONPATH must include directory above plugin directory.
#     Define either externally or here, then import plugin.
sys.path.insert(0, '/Users/kevinhannon/Programs/Quantum_Programs/Quantum-Programs/GS/')
import scf

molecule {
0 1
H
H 1 2.30000
symmetry c1
units angstrom
}


set {
  basis cc-pvdz
  reference rhf
  scf_type  pk
}

set scf {
  DO_FTHF true
  MAX_ITER 130
  MAX_TEMP 100
  TEMP_INCREMENT 0
  bisect  true
  bisect_iter  40
}
energy('rhf')

energy('scf')


--------------------------------------------------------------------------

*** tstart() called on Kevins-MacBook-Pro.local
*** at Fri Apr 10 18:02:13 2015

/Users/kevinhannon/Programs/Quantum_Programs/Quantum-Programs/GS/scf/scf.so loaded.

*** tstart() called on Kevins-MacBook-Pro.local
*** at Fri Apr 10 18:02:13 2015


         ---------------------------------------------------------
                                   SCF
            by Justin Turney, Rob Parrish, and Andy Simmonett
                              RHF Reference
                        1 Threads,    256 MiB Core
         ---------------------------------------------------------

  ==> Geometry <==

    Molecular point group: c1
    Full point group: D_inf_h

    Geometry (in Angstrom), charge = 0, multiplicity = 1:

       Center              X                  Y                   Z       
    ------------   -----------------  -----------------  -----------------
           H          0.000000000000     0.000000000000    -1.150000000000
           H          0.000000000000     0.000000000000     1.150000000000

  Running in c1 symmetry.

  Rotational constants: A = ************  B =      6.32391  C =      6.32391 [cm^-1]
  Rotational constants: A = ************  B = 189586.05018  C = 189586.05018 [MHz]
  Nuclear repulsion =    0.230077047213044

  Charge       = 0
  Multiplicity = 1
  Electrons    = 2
  Nalpha       = 1
  Nbeta        = 1

  ==> Algorithm <==

  SCF Algorithm Type is PK.
  DIIS enabled.
  MOM disabled.
  Fractional occupation disabled.
  Guess Type is CORE.
  Energy threshold   = 1.00e-06
  Density threshold  = 1.00e-06
  Integral threshold = 0.00e+00

  ==> Primary Basis <==

  Basis Set: CC-PVDZ
    Number of shells: 6
    Number of basis function: 10
    Number of Cartesian functions: 10
    Spherical Harmonics?: true
    Max angular momentum: 1

  ==> Pre-Iterations <==

   -------------------------------------------------------
    Irrep   Nso     Nmo     Nalpha   Nbeta   Ndocc  Nsocc
   -------------------------------------------------------
     A         10      10       0       0       0       0
   -------------------------------------------------------
    Total      10      10       1       1       1       0
   -------------------------------------------------------

  Starting with a DF guess...

 OEINTS: Overlap, kinetic, potential, dipole, and quadrupole integrals
         stored in file 35.

  ==> Integral Setup <==

  ==> DFJK: Density-Fitted J/K Matrices <==

    J tasked:                  Yes
    K tasked:                  Yes
    wK tasked:                  No
    OpenMP threads:              1
    Integrals threads:           1
    Memory (MB):               183
    Algorithm:                Core
    Integral Cache:           NONE
    Schwarz Cutoff:          1E-12
    Fitting Condition:       1E-12

   => Auxiliary Basis Set <=

  Basis Set: 
    Number of shells: 18
    Number of basis function: 46
    Number of Cartesian functions: 50
    Spherical Harmonics?: true
    Max angular momentum: 2

  Minimum eigenvalue in the overlap matrix is 2.3541804577E-01.
  Using Symmetric Orthogonalization.
  SCF Guess: Core (One-Electron) Hamiltonian.

  ==> Iterations <==

                           Total Energy        Delta E     RMS |[F,P]|

   @DF-RHF iter   1:    -0.86665258348121   -8.66653e-01   1.29643e-02 
   @DF-RHF iter   2:    -0.88491524574296   -1.82627e-02   2.24124e-03 DIIS
   @DF-RHF iter   3:    -0.88550140420003   -5.86158e-04   5.39489e-05 DIIS
   @DF-RHF iter   4:    -0.88550166535631   -2.61156e-07   8.05276e-07 DIIS

  DF guess converged.

  ==> Integral Setup <==

 MINTS: Wrapper to libmints.
   by Justin Turney

   Calculation information:
      Number of atoms:                   2
      Number of AO shells:               6
      Number of SO shells:               6
      Number of primitives:             10
      Number of atomic orbitals:        10
      Number of basis functions:        10

      Number of irreps:                  1
      Integral cutoff                 0.00e+00
      Number of functions per irrep: [  10 ]

 OEINTS: Overlap, kinetic, potential, dipole, and quadrupole integrals
         stored in file 35.

      Computing two-electron integrals...done
      Computed 512 non-zero two-electron integrals.
        Stored in file 33.

	Batch   1 pq = [       0,      55] index = [             0,1540]
  ==> DiskJK: Disk-Based J/K Matrices <==

    J tasked:                  Yes
    K tasked:                  Yes
    wK tasked:                  No
    Memory (MB):               183
    Schwarz Cutoff:          1E-12

   @RHF iter   5:    -0.88548551438285    1.61510e-05   5.40625e-06 DIIS
   @RHF iter   6:    -0.88548551729104   -2.90820e-09   8.97191e-07 DIIS

  ==> Post-Iterations <==

    Orbital Energies (a.u.)
    -----------------------

    Doubly Occupied:                                                      

       1A     -0.362368  

    Virtual:                                                              

       2A     -0.067758     3A      0.643353     4A      0.660289  
       5A      1.426979     6A      1.462521     7A      1.462521  
       8A      1.477990     9A      1.477990    10A      1.572895  

    Final Occupation by Irrep:
              A 
    DOCC [     1 ]

  Energy converged.

  @RHF Final Energy:    -0.88548551729104

   => Energetics <=

    Nuclear Repulsion Energy =              0.2300770472130435
    One-Electron Energy =                  -1.5063863071806893
    Two-Electron Energy =                   0.3908237426766017
    DFT Exchange-Correlation Energy =       0.0000000000000000
    Empirical Dispersion Energy =           0.0000000000000000
    PCM Polarization Energy =               0.0000000000000000
    EFP Energy =                            0.0000000000000000
    Total Energy =                         -0.8854855172910441

    Alert: EFP and PCM quantities not currently incorporated into SCF psivars.

Properties will be evaluated at   0.000000,   0.000000,   0.000000 Bohr
  ==> Properties <==


Properties computed using the SCF density matrix

  Nuclear Dipole Moment: (a.u.)
     X:     0.0000      Y:     0.0000      Z:     0.0000

  Electronic Dipole Moment: (a.u.)
     X:     0.0000      Y:     0.0000      Z:     0.0000

  Dipole Moment: (a.u.)
     X:     0.0000      Y:     0.0000      Z:     0.0000     Total:     0.0000

  Dipole Moment: (Debye)
     X:     0.0000      Y:     0.0000      Z:     0.0000     Total:     0.0000


  Saving occupied orbitals to File 180.

*** tstop() called on Kevins-MacBook-Pro.local at Fri Apr 10 18:02:13 2015
Module time:
	user time   =       0.20 seconds =       0.00 minutes
	system time =       0.01 seconds =       0.00 minutes
	total time  =          0 seconds =       0.00 minutes
Total time:
	user time   =       0.21 seconds =       0.00 minutes
	system time =       0.01 seconds =       0.00 minutes
	total time  =          0 seconds =       0.00 minutes

*** tstart() called on Kevins-MacBook-Pro.local
*** at Fri Apr 10 18:02:13 2015


         ---------------------------------------------------------
                                   SCF
            by Justin Turney, Rob Parrish, and Andy Simmonett
                              RHF Reference
                        1 Threads,    256 MiB Core
         ---------------------------------------------------------

  ==> Geometry <==

    Molecular point group: c1
    Full point group: D_inf_h

    Geometry (in Angstrom), charge = 0, multiplicity = 1:

       Center              X                  Y                   Z       
    ------------   -----------------  -----------------  -----------------
           H          0.000000000000     0.000000000000    -1.150000000000
           H          0.000000000000     0.000000000000     1.150000000000

  Running in c1 symmetry.

  Rotational constants: A = ************  B =      6.32391  C =      6.32391 [cm^-1]
  Rotational constants: A = ************  B = 189586.05018  C = 189586.05018 [MHz]
  Nuclear repulsion =    0.230077047213044

  Charge       = 0
  Multiplicity = 1
  Electrons    = 2
  Nalpha       = 1
  Nbeta        = 1

  ==> Algorithm <==

  SCF Algorithm Type is PK.
  DIIS enabled.
  MOM disabled.
  Fractional occupation disabled.
  Guess Type is CORE.
  Energy threshold   = 1.00e-08
  Density threshold  = 1.00e-08
  Integral threshold = 0.00e+00

  ==> Primary Basis <==

  Basis Set: CC-PVDZ
    Number of shells: 6
    Number of basis function: 10
    Number of Cartesian functions: 10
    Spherical Harmonics?: true
    Max angular momentum: 1

  ==> Pre-Iterations <==

   -------------------------------------------------------
    Irrep   Nso     Nmo     Nalpha   Nbeta   Ndocc  Nsocc
   -------------------------------------------------------
     A         10      10       0       0       0       0
   -------------------------------------------------------
    Total      10      10       1       1       1       0
   -------------------------------------------------------

  Starting with a DF guess...

 OEINTS: Overlap, kinetic, potential, dipole, and quadrupole integrals
         stored in file 35.

  ==> Integral Setup <==

  ==> DFJK: Density-Fitted J/K Matrices <==

    J tasked:                  Yes
    K tasked:                  Yes
    wK tasked:                  No
    OpenMP threads:              1
    Integrals threads:           1
    Memory (MB):               183
    Algorithm:                Core
    Integral Cache:           NONE
    Schwarz Cutoff:          1E-12
    Fitting Condition:       1E-12

   => Auxiliary Basis Set <=

  Basis Set: 
    Number of shells: 18
    Number of basis function: 46
    Number of Cartesian functions: 50
    Spherical Harmonics?: true
    Max angular momentum: 2

  Minimum eigenvalue in the overlap matrix is 2.3541804577E-01.
  Using Symmetric Orthogonalization.
  SCF Guess: Core (One-Electron) Hamiltonian.

  ==> Iterations <==

                           Total Energy        Delta E     RMS |[F,P]|

   @DF-RHF iter   1:    -0.86665258348120   -8.66653e-01   1.29643e-02 
   @DF-RHF iter   2:    -0.88491524574296   -1.82627e-02   2.24124e-03 DIIS
   @DF-RHF iter   3:    -0.88550140420003   -5.86158e-04   5.39489e-05 DIIS
   @DF-RHF iter   4:    -0.88550166535631   -2.61156e-07   8.05276e-07 DIIS
   @DF-RHF iter   5:    -0.88550166540668   -5.03713e-11   1.98055e-10 DIIS

  DF guess converged.

  ==> Integral Setup <==

 MINTS: Wrapper to libmints.
   by Justin Turney

   Calculation information:
      Number of atoms:                   2
      Number of AO shells:               6
      Number of SO shells:               6
      Number of primitives:             10
      Number of atomic orbitals:        10
      Number of basis functions:        10

      Number of irreps:                  1
      Integral cutoff                 0.00e+00
      Number of functions per irrep: [  10 ]

 OEINTS: Overlap, kinetic, potential, dipole, and quadrupole integrals
         stored in file 35.

      Computing two-electron integrals...done
      Computed 512 non-zero two-electron integrals.
        Stored in file 33.

	Batch   1 pq = [       0,      55] index = [             0,1540]
  ==> DiskJK: Disk-Based J/K Matrices <==

    J tasked:                  Yes
    K tasked:                  Yes
    wK tasked:                  No
    Memory (MB):               183
    Schwarz Cutoff:          1E-12

   @RHF iter   6:    -0.88548551438307    1.61510e-05   5.40606e-06 DIIS
   @RHF iter   7:    -0.88548551729105   -2.90798e-09   8.97157e-07 DIIS
   @RHF iter   8:    -0.88548551738035   -8.92957e-11   2.75577e-08 DIIS
   @RHF iter   9:    -0.88548551738042   -7.26086e-14   1.50827e-13 DIIS

  ==> Post-Iterations <==

    Orbital Energies (a.u.)
    -----------------------

    Doubly Occupied:                                                      

       1A     -0.362368  

    Virtual:                                                              

       2A     -0.067758     3A      0.643353     4A      0.660289  
       5A      1.426980     6A      1.462521     7A      1.462521  
       8A      1.477990     9A      1.477990    10A      1.572895  

    Final Occupation by Irrep:
              A 
    DOCC [     1 ]

  Energy converged.

  @RHF Final Energy:    -0.88548551738042

   => Energetics <=

    Nuclear Repulsion Energy =              0.2300770472130435
    One-Electron Energy =                  -1.5063885757697024
    Two-Electron Energy =                   0.3908260111762407
    DFT Exchange-Correlation Energy =       0.0000000000000000
    Empirical Dispersion Energy =           0.0000000000000000
    PCM Polarization Energy =               0.0000000000000000
    EFP Energy =                            0.0000000000000000
    Total Energy =                         -0.8854855173804181

    Alert: EFP and PCM quantities not currently incorporated into SCF psivars.

Properties will be evaluated at   0.000000,   0.000000,   0.000000 Bohr
  ==> Properties <==


Properties computed using the SCF density matrix

  Nuclear Dipole Moment: (a.u.)
     X:     0.0000      Y:     0.0000      Z:     0.0000

  Electronic Dipole Moment: (a.u.)
     X:    -0.0000      Y:     0.0000      Z:     0.0000

  Dipole Moment: (a.u.)
     X:    -0.0000      Y:     0.0000      Z:     0.0000     Total:     0.0000

  Dipole Moment: (Debye)
     X:    -0.0000      Y:     0.0000      Z:     0.0000     Total:     0.0000


  Saving occupied orbitals to File 180.

*** tstop() called on Kevins-MacBook-Pro.local at Fri Apr 10 18:02:13 2015
Module time:
	user time   =       0.18 seconds =       0.00 minutes
	system time =       0.01 seconds =       0.00 minutes
	total time  =          0 seconds =       0.00 minutes
Total time:
	user time   =       0.40 seconds =       0.01 minutes
	system time =       0.02 seconds =       0.00 minutes
	total time  =          0 seconds =       0.00 minutes
Reading options from the SCF block
Calling plugin scf.so.
    Molecular point group: c1
    Full point group: D_inf_h

    Geometry (in Angstrom), charge = 0, multiplicity = 1:

       Center              X                  Y                   Z       
    ------------   -----------------  -----------------  -----------------
           H          0.000000000000     0.000000000000    -1.150000000000
           H          0.000000000000     0.000000000000     1.150000000000


    Nuclear repulsion energy:       0.23007705

  ## Overlap (Symmetry 0) ##
  Irrep: 1 Size: 10 x 10

                 1                   2                   3                   4                   5

    1     1.00000000000000     0.68486025149275     0.00000000000000     0.00000000000000     0.00000000000000
    2     0.68486025149275     1.00000000000000     0.00000000000000     0.00000000000000     0.00000000000000
    3     0.00000000000000     0.00000000000000     1.00000000000000     0.00000000000000     0.00000000000000
    4     0.00000000000000     0.00000000000000     0.00000000000000     1.00000000000000     0.00000000000000
    5     0.00000000000000     0.00000000000000     0.00000000000000     0.00000000000000     1.00000000000000
    6     0.01021473306472     0.10832496757798     0.01197820051089     0.00000000000000     0.00000000000000
    7     0.10832496757798     0.31589451993072     0.08697500047162     0.00000000000000     0.00000000000000
    8    -0.01197820051089    -0.08697500047162    -0.01326532884579     0.00000000000000     0.00000000000000
    9     0.00000000000000     0.00000000000000     0.00000000000000     0.00104174907031     0.00000000000000
   10     0.00000000000000     0.00000000000000     0.00000000000000     0.00000000000000     0.00104174907031

                 6                   7                   8                   9                  10

    1     0.01021473306472     0.10832496757798    -0.01197820051089     0.00000000000000     0.00000000000000
    2     0.10832496757798     0.31589451993072    -0.08697500047162     0.00000000000000     0.00000000000000
    3     0.01197820051089     0.08697500047162    -0.01326532884579     0.00000000000000     0.00000000000000
    4     0.00000000000000     0.00000000000000     0.00000000000000     0.00104174907031     0.00000000000000
    5     0.00000000000000     0.00000000000000     0.00000000000000     0.00000000000000     0.00104174907031
    6     1.00000000000000     0.68486025149275    -0.00000000000000     0.00000000000000     0.00000000000000
    7     0.68486025149275     1.00000000000000     0.00000000000000     0.00000000000000     0.00000000000000
    8    -0.00000000000000     0.00000000000000     1.00000000000000     0.00000000000000     0.00000000000000
    9     0.00000000000000     0.00000000000000     0.00000000000000     1.00000000000000     0.00000000000000
   10     0.00000000000000     0.00000000000000     0.00000000000000     0.00000000000000     1.00000000000000



  ## Kinetic (Symmetry 0) ##
  Irrep: 1 Size: 10 x 10

                 1                   2                   3                   4                   5

    1     0.96945722711242     0.20123413106538    -0.00000000000000     0.00000000000000     0.00000000000000
    2     0.20123413106538     0.18300000000000     0.00000000000000     0.00000000000000     0.00000000000000
    3    -0.00000000000000     0.00000000000000     1.81750000000000     0.00000000000000     0.00000000000000
    4     0.00000000000000     0.00000000000000     0.00000000000000     1.81750000000000     0.00000000000000
    5     0.00000000000000     0.00000000000000     0.00000000000000     0.00000000000000     1.81750000000000
    6    -0.01301793053618    -0.00725253053870    -0.01823045486124     0.00000000000000     0.00000000000000
    7    -0.00725253053870     0.01339824778873     0.00956750620437     0.00000000000000     0.00000000000000
    8     0.01823045486124    -0.00956750620437     0.03171223349086     0.00000000000000     0.00000000000000
    9     0.00000000000000     0.00000000000000     0.00000000000000    -0.00330724388722     0.00000000000000
   10     0.00000000000000     0.00000000000000     0.00000000000000     0.00000000000000    -0.00330724388722

                 6                   7                   8                   9                  10

    1    -0.01301793053618    -0.00725253053870     0.01823045486124     0.00000000000000     0.00000000000000
    2    -0.00725253053870     0.01339824778873    -0.00956750620437     0.00000000000000     0.00000000000000
    3    -0.01823045486124     0.00956750620437     0.03171223349086     0.00000000000000     0.00000000000000
    4     0.00000000000000     0.00000000000000     0.00000000000000    -0.00330724388722     0.00000000000000
    5     0.00000000000000     0.00000000000000     0.00000000000000     0.00000000000000    -0.00330724388722
    6     0.96945722711242     0.20123413106538     0.00000000000000     0.00000000000000     0.00000000000000
    7     0.20123413106538     0.18300000000000     0.00000000000000     0.00000000000000     0.00000000000000
    8     0.00000000000000     0.00000000000000     1.81750000000000     0.00000000000000     0.00000000000000
    9     0.00000000000000     0.00000000000000     0.00000000000000     1.81750000000000     0.00000000000000
   10     0.00000000000000     0.00000000000000     0.00000000000000     0.00000000000000     1.81750000000000



  ## Potential (Symmetry 0) ##
  Irrep: 1 Size: 10 x 10

                 1                   2                   3                   4                   5

    1    -1.60793883086885    -0.80727731187627    -0.03330300682368     0.00000000000000     0.00000000000000
    2    -0.80727731187627    -0.78690409947785    -0.03123992809455     0.00000000000000     0.00000000000000
    3    -0.03330300682368    -0.03123992809455    -1.14553427079087     0.00000000000000     0.00000000000000
    4     0.00000000000000     0.00000000000000     0.00000000000000    -1.13296972661526     0.00000000000000
    5     0.00000000000000     0.00000000000000     0.00000000000000     0.00000000000000    -1.13296972661526
    6    -0.00951868899312    -0.11825079064290    -0.01102727758684     0.00000000000000     0.00000000000000
    7    -0.11825079064290    -0.25322213375100    -0.08584869555786     0.00000000000000     0.00000000000000
    8     0.01102727758684     0.08584869555786     0.01206941482227     0.00000000000000     0.00000000000000
    9     0.00000000000000     0.00000000000000     0.00000000000000    -0.00088894944591     0.00000000000000
   10     0.00000000000000     0.00000000000000     0.00000000000000     0.00000000000000    -0.00088894944591

                 6                   7                   8                   9                  10

    1    -0.00951868899312    -0.11825079064290     0.01102727758684     0.00000000000000     0.00000000000000
    2    -0.11825079064290    -0.25322213375100     0.08584869555786     0.00000000000000     0.00000000000000
    3    -0.01102727758684    -0.08584869555786     0.01206941482227     0.00000000000000     0.00000000000000
    4     0.00000000000000     0.00000000000000     0.00000000000000    -0.00088894944591     0.00000000000000
    5     0.00000000000000     0.00000000000000     0.00000000000000     0.00000000000000    -0.00088894944591
    6    -1.60793883086885    -0.80727731187627     0.03330300682368     0.00000000000000     0.00000000000000
    7    -0.80727731187627    -0.78690409947785     0.03123992809455     0.00000000000000     0.00000000000000
    8     0.03330300682368     0.03123992809455    -1.14553427079087     0.00000000000000     0.00000000000000
    9     0.00000000000000     0.00000000000000     0.00000000000000    -1.13296972661526     0.00000000000000
   10     0.00000000000000     0.00000000000000     0.00000000000000     0.00000000000000    -1.13296972661526



  ## One Electron Ints (Symmetry 0) ##
  Irrep: 1 Size: 10 x 10

                 1                   2                   3                   4                   5

    1    -0.63848160375642    -0.60604318081089    -0.03330300682368     0.00000000000000     0.00000000000000
    2    -0.60604318081089    -0.60390409947785    -0.03123992809455     0.00000000000000     0.00000000000000
    3    -0.03330300682368    -0.03123992809455     0.67196572920913     0.00000000000000     0.00000000000000
    4     0.00000000000000     0.00000000000000     0.00000000000000     0.68453027338474     0.00000000000000
    5     0.00000000000000     0.00000000000000     0.00000000000000     0.00000000000000     0.68453027338474
    6    -0.02253661952929    -0.12550332118160    -0.02925773244808     0.00000000000000     0.00000000000000
    7    -0.12550332118160    -0.23982388596227    -0.07628118935349     0.00000000000000     0.00000000000000
    8     0.02925773244808     0.07628118935349     0.04378164831314     0.00000000000000     0.00000000000000
    9     0.00000000000000     0.00000000000000     0.00000000000000    -0.00419619333313     0.00000000000000
   10     0.00000000000000     0.00000000000000     0.00000000000000     0.00000000000000    -0.00419619333313

                 6                   7                   8                   9                  10

    1    -0.02253661952929    -0.12550332118160     0.02925773244808     0.00000000000000     0.00000000000000
    2    -0.12550332118160    -0.23982388596227     0.07628118935349     0.00000000000000     0.00000000000000
    3    -0.02925773244808    -0.07628118935349     0.04378164831314     0.00000000000000     0.00000000000000
    4     0.00000000000000     0.00000000000000     0.00000000000000    -0.00419619333313     0.00000000000000
    5     0.00000000000000     0.00000000000000     0.00000000000000     0.00000000000000    -0.00419619333313
    6    -0.63848160375642    -0.60604318081089     0.03330300682368     0.00000000000000     0.00000000000000
    7    -0.60604318081089    -0.60390409947785     0.03123992809455     0.00000000000000     0.00000000000000
    8     0.03330300682368     0.03123992809455     0.67196572920913     0.00000000000000     0.00000000000000
    9     0.00000000000000     0.00000000000000     0.00000000000000     0.68453027338474     0.00000000000000
   10     0.00000000000000     0.00000000000000     0.00000000000000     0.00000000000000     0.68453027338474




	There are 0 unique integrals

  ## Fock (Symmetry 0) ##
  Irrep: 1 Size: 10 x 10

                 1                   2                   3                   4                   5

    1    -0.40308279201988    -0.35790134155793    -0.03675506228826     0.00000000000000     0.00000000000000
    2    -0.35790134155793    -0.31469651808877     0.01109284408122    -0.00000000000000     0.00000000000000
    3    -0.03675506228826     0.01109284408122     0.68556540037559    -0.00000000000000     0.00000000000000
    4     0.00000000000000    -0.00000000000000    -0.00000000000000     0.68453538765120     0.00000000000000
    5     0.00000000000000     0.00000000000000     0.00000000000000     0.00000000000000     0.68453538765120
    6     0.01177823407091    -0.00235712436603     0.03621299429697     0.00000000000000     0.00000000000000
    7    -0.00235712436603    -0.08851521886181    -0.11361896919487    -0.00000000000000     0.00000000000000
    8    -0.03621299429697     0.11361896919487     0.05525230807974     0.00000000000000     0.00000000000000
    9     0.00000000000000    -0.00000000000000     0.00000000000000    -0.00490930743681     0.00000000000000
   10     0.00000000000000     0.00000000000000     0.00000000000000     0.00000000000000    -0.00490930743681

                 6                   7                   8                   9                  10

    1     0.01177823407091    -0.00235712436603    -0.03621299429697     0.00000000000000     0.00000000000000
    2    -0.00235712436603    -0.08851521886181     0.11361896919487    -0.00000000000000     0.00000000000000
    3     0.03621299429697    -0.11361896919487     0.05525230807974     0.00000000000000     0.00000000000000
    4     0.00000000000000    -0.00000000000000     0.00000000000000    -0.00490930743681     0.00000000000000
    5     0.00000000000000     0.00000000000000     0.00000000000000     0.00000000000000    -0.00490930743681
    6    -0.40308279201988    -0.35790134155793     0.03675506228826     0.00000000000000     0.00000000000000
    7    -0.35790134155793    -0.31469651808877    -0.01109284408122    -0.00000000000000     0.00000000000000
    8     0.03675506228826    -0.01109284408122     0.68556540037560     0.00000000000000     0.00000000000000
    9     0.00000000000000    -0.00000000000000     0.00000000000000     0.68453538765120     0.00000000000000
   10     0.00000000000000     0.00000000000000     0.00000000000000     0.00000000000000     0.68453538765120



  ## C (Symmetry 0) ##
  Irrep: 1 Size: 10 x 10

                 1                   2                   3                   4                   5

    1     0.93380741808353     0.87861940476999     0.04294498949242     0.01937393084388    -0.03948275434215
    2    -1.02926602930352    -0.84690170399068    -0.00617033753881    -0.08575421789044     0.17563820940761
    3    -0.52129996696602     0.47957549470649     0.07398953057659    -0.02565346373965     0.04627146354828
    4     0.42570059388823    -0.54757679889883     0.13761925968679     0.00000000000000     0.00036831416577
    5     0.02693575712163    -0.07823712453845     0.70189605260080     0.00000000000000     0.00000000000000
    6    -0.04512568538876    -0.00988671660821     0.00263289715907    -0.91344560519341     0.37611178039934
    7     0.19958505214790     0.10377276710369    -0.00501190079974     0.38864374377910    -0.95868367565952
    8    -0.05458161684403    -0.03873713813235     0.00012811257763    -0.71379975745974     0.01253196337975
    9    -0.00022173665912     0.00028521888797    -0.00007168238737    -0.00000000000000    -0.70710706895478
   10    -0.07708069585446     0.11442662964750     0.69315926314120    -0.00000000000000     0.00000000000000

                 6                   7                   8                   9                  10

    1     0.33879916870786     0.41849984232833    -0.05271519184741    -0.02065675562681    -0.03948275434215
    2     0.48737004881545     0.32591216771540     0.03107392735904     0.00678870920613     0.17563820940761
    3    -0.50147442046516     0.49490657925986    -0.07366398954196    -0.01437722273104     0.04627146354828
    4    -0.42570059388824     0.54757679889884     0.13761925968679     0.00000000000000    -0.00036831416577
    5     0.02685547295072    -0.07811796309183    -0.70261853187411    -0.00000000000000     0.00000000000000
    6     0.01733597033686     0.03841484850792    -0.00160725925151    -0.90620940983235     0.37611178039934
    7    -0.07827432091438    -0.11109573814456     0.00044937195430     0.36357981701959    -0.95868367565952
    8     0.01861976624661     0.01786945243699     0.00107387466576     0.70656356209871     0.01253196337975
    9     0.00022173665912    -0.00028521888797    -0.00007168238737    -0.00000000000000     0.70710706895478
   10     0.07705267736490    -0.11434518824181     0.69389083922099     0.00000000000000     0.00000000000000




 In Bisection function HOMO = -0.761  LUMO =  0.769

 0.00402 = (-0.76146 + 0.76950)/2.0
 sum -  nocc_ = 2.00000000
 On Iteration in Bisection 0
 a: 2.00000  b:-0.50000

 -0.37872 = (-0.76146 + 0.00402)/2.0
 sum -  nocc_ = 1.00000000
 On Iteration in Bisection 1
 a: 1.00000  b:-0.50000

 -0.57009 = (-0.76146 + -0.37872)/2.0
 sum -  nocc_ = 1.00000000
 On Iteration in Bisection 2
 a: 1.00000  b:-0.50000

 -0.66578 = (-0.76146 + -0.57009)/2.0
 sum -  nocc_ = 1.00000000
 On Iteration in Bisection 3
 a: 1.00000  b:-0.50000

 -0.71362 = (-0.76146 + -0.66578)/2.0
 sum -  nocc_ = 0.00000000
 ef = -0.71362 sum = 1.00000 

 Iter: 0  T:      100.000  val:-0.713622  sumni 0.00000
 ne = 1.0000

Nuc Replusion =       0.230077047213
 1st iteration =       0.660426901986
 In Bisection function HOMO = -0.290  LUMO =  1.845

 0.77757 = (-0.28970 + 1.84485)/2.0
 sum -  nocc_ = 3.00000000
 On Iteration in Bisection 0
 a: 3.00000  b:-0.50000

 0.24393 = (-0.28970 + 0.77757)/2.0
 sum -  nocc_ = 1.00000000
 On Iteration in Bisection 1
 a: 1.00000  b:-0.50000

 -0.02289 = (-0.28970 + 0.24393)/2.0
 sum -  nocc_ = 0.00000000
 ef = -0.02289 sum = 1.00000 

 Iter: 0  T:      100.000  val:-0.022886  sumni 0.00000
 ne = 1.0000

 iter:1  failiter:1  energy:     -1.016749859318  total:     -0.786672812105  error:     -0.131264341938
 In Bisection function HOMO = -0.293  LUMO =  1.888

 0.79746 = (-0.29325 + 1.88817)/2.0
 sum -  nocc_ = 2.00000000
 On Iteration in Bisection 0
 a: 2.00000  b:-0.50000

 0.25210 = (-0.29325 + 0.79746)/2.0
 sum -  nocc_ = 1.00000000
 On Iteration in Bisection 1
 a: 1.00000  b:-0.50000

 -0.02058 = (-0.29325 + 0.25210)/2.0
 sum -  nocc_ = 1.00000000
 On Iteration in Bisection 2
 a: 1.00000  b:-0.50000

 -0.15692 = (-0.29325 + -0.02058)/2.0
 sum -  nocc_ = 0.00000000
 ef = -0.15692 sum = 1.00000 

 Iter: 1  T:      100.000  val:-0.156916  sumni 0.00000
 ne = 1.0000

 iter:2  failiter:2  energy:     -1.035193300329  total:     -0.805116253116  error:     -0.018443441011
 In Bisection function HOMO = -0.320  LUMO =  1.827

 0.75336 = (-0.31996 + 1.82668)/2.0
 sum -  nocc_ = 2.00000000
 On Iteration in Bisection 0
 a: 2.00000  b:-0.50000

 0.21670 = (-0.31996 + 0.75336)/2.0
 sum -  nocc_ = 1.00000000
 On Iteration in Bisection 1
 a: 1.00000  b:-0.50000

 -0.05163 = (-0.31996 + 0.21670)/2.0
 sum -  nocc_ = 1.00000000
 On Iteration in Bisection 2
 a: 1.00000  b:-0.50000

 -0.18579 = (-0.31996 + -0.05163)/2.0
 sum -  nocc_ = 0.00000000
 ef = -0.18579 sum = 1.00000 

 Iter: 2  T:      100.000  val:-0.185793  sumni 0.00000
 ne = 1.0000

 iter:3  failiter:3  energy:     -1.071250884981  total:     -0.841173837768  error:     -0.036057584652
 In Bisection function HOMO = -0.344  LUMO =  1.714

 0.68525 = (-0.34389 + 1.71440)/2.0
 sum -  nocc_ = 2.00000000
 On Iteration in Bisection 0
 a: 2.00000  b:-0.50000

 0.17068 = (-0.34389 + 0.68525)/2.0
 sum -  nocc_ = 1.00000000
 On Iteration in Bisection 1
 a: 1.00000  b:-0.50000

 -0.08661 = (-0.34389 + 0.17068)/2.0
 sum -  nocc_ = 0.00000000
 ef = -0.08661 sum = 1.00000 

 Iter: 3  T:      100.000  val:-0.086608  sumni 0.00000
 ne = 1.0000

 iter:4  failiter:4  energy:     -1.097493889493  total:     -0.867416842280  error:     -0.026243004512
 In Bisection function HOMO = -0.357  LUMO =  1.625

 0.63430 = (-0.35673 + 1.62533)/2.0
 sum -  nocc_ = 2.00000000
 On Iteration in Bisection 0
 a: 2.00000  b:-0.50000

 0.13879 = (-0.35673 + 0.63430)/2.0
 sum -  nocc_ = 1.00000000
 On Iteration in Bisection 1
 a: 1.00000  b:-0.50000

 -0.10897 = (-0.35673 + 0.13879)/2.0
 sum -  nocc_ = 0.00000000
 ef = -0.10897 sum = 1.00000 

 Iter: 4  T:      100.000  val:-0.108971  sumni 0.00000
 ne = 1.0000

 iter:5  failiter:5  energy:     -1.110253621900  total:     -0.880176574687  error:     -0.012759732407
 In Bisection function HOMO = -0.361  LUMO =  1.586

 0.61275 = (-0.36096 + 1.58645)/2.0
 sum -  nocc_ = 1.00000000
 On Iteration in Bisection 0
 a: 1.00000  b:-0.50000

 0.12589 = (-0.36096 + 0.61275)/2.0
 sum -  nocc_ = 1.00000000
 On Iteration in Bisection 1
 a: 1.00000  b:-0.50000

 -0.11754 = (-0.36096 + 0.12589)/2.0
 sum -  nocc_ = 0.00000000
 ef = -0.11754 sum = 1.00000 

 Iter: 5  T:      100.000  val:-0.117535  sumni 0.00000
 ne = 1.0000

 iter:6  failiter:6  energy:     -1.114274141055  total:     -0.884197093842  error:     -0.004020519155
 In Bisection function HOMO = -0.362  LUMO =  1.576

 0.60686 = (-0.36205 + 1.57576)/2.0
 sum -  nocc_ = 1.00000000
 On Iteration in Bisection 0
 a: 1.00000  b:-0.50000

 0.12240 = (-0.36205 + 0.60686)/2.0
 sum -  nocc_ = 1.00000000
 On Iteration in Bisection 1
 a: 1.00000  b:-0.50000

 -0.11982 = (-0.36205 + 0.12240)/2.0
 sum -  nocc_ = 0.00000000
 ef = -0.11982 sum = 1.00000 

 Iter: 6  T:      100.000  val:-0.119821  sumni 0.00000
 ne = 1.0000

 iter:7  failiter:7  energy:     -1.115273725441  total:     -0.885196678228  error:     -0.000999584386
 In Bisection function HOMO = -0.362  LUMO =  1.573

 0.60558 = (-0.36230 + 1.57346)/2.0
 sum -  nocc_ = 1.00000000
 On Iteration in Bisection 0
 a: 1.00000  b:-0.50000

 0.12164 = (-0.36230 + 0.60558)/2.0
 sum -  nocc_ = 1.00000000
 On Iteration in Bisection 1
 a: 1.00000  b:-0.50000

 -0.12033 = (-0.36230 + 0.12164)/2.0
 sum -  nocc_ = 0.00000000
 ef = -0.12033 sum = 1.00000 

 Iter: 7  T:      100.000  val:-0.120328  sumni 0.00000
 ne = 1.0000

 iter:8  failiter:8  energy:     -1.115499909780  total:     -0.885422862567  error:     -0.000226184339
 In Bisection function HOMO = -0.362  LUMO =  1.573

 0.60533 = (-0.36235 + 1.57301)/2.0
 sum -  nocc_ = 1.00000000
 On Iteration in Bisection 0
 a: 1.00000  b:-0.50000

 0.12149 = (-0.36235 + 0.60533)/2.0
 sum -  nocc_ = 1.00000000
 On Iteration in Bisection 1
 a: 1.00000  b:-0.50000

 -0.12043 = (-0.36235 + 0.12149)/2.0
 sum -  nocc_ = 0.00000000
 ef = -0.12043 sum = 1.00000 

 Iter: 8  T:      100.000  val:-0.120433  sumni 0.00000
 ne = 1.0000

 iter:9  failiter:9  energy:     -1.115549240628  total:     -0.885472193414  error:     -0.000049330848
 In Bisection function HOMO = -0.362  LUMO =  1.573

 0.60528 = (-0.36237 + 1.57292)/2.0
 sum -  nocc_ = 1.00000000
 On Iteration in Bisection 0
 a: 1.00000  b:-0.50000

 0.12146 = (-0.36237 + 0.60528)/2.0
 sum -  nocc_ = 1.00000000
 On Iteration in Bisection 1
 a: 1.00000  b:-0.50000

 -0.12045 = (-0.36237 + 0.12146)/2.0
 sum -  nocc_ = 0.00000000
 ef = -0.12045 sum = 1.00000 

 Iter: 9  T:      100.000  val:-0.120455  sumni 0.00000
 ne = 1.0000

 iter:10  failiter:10  energy:     -1.115559772898  total:     -0.885482725685  error:     -0.000010532271
 In Bisection function HOMO = -0.362  LUMO =  1.573

 0.60527 = (-0.36237 + 1.57290)/2.0
 sum -  nocc_ = 1.00000000
 On Iteration in Bisection 0
 a: 1.00000  b:-0.50000

 0.12145 = (-0.36237 + 0.60527)/2.0
 sum -  nocc_ = 1.00000000
 On Iteration in Bisection 1
 a: 1.00000  b:-0.50000

 -0.12046 = (-0.36237 + 0.12145)/2.0
 sum -  nocc_ = 0.00000000
 ef = -0.12046 sum = 1.00000 

 Iter: 10  T:      100.000  val:-0.120459  sumni 0.00000
 ne = 1.0000

 iter:11  failiter:11  energy:     -1.115561986784  total:     -0.885484939571  error:     -0.000002213886
 In Bisection function HOMO = -0.362  LUMO =  1.573

 0.60526 = (-0.36237 + 1.57290)/2.0
 sum -  nocc_ = 1.00000000
 On Iteration in Bisection 0
 a: 1.00000  b:-0.50000

 0.12145 = (-0.36237 + 0.60526)/2.0
 sum -  nocc_ = 1.00000000
 On Iteration in Bisection 1
 a: 1.00000  b:-0.50000

 -0.12046 = (-0.36237 + 0.12145)/2.0
 sum -  nocc_ = 0.00000000
 ef = -0.12046 sum = 1.00000 

 Iter: 11  T:      100.000  val:-0.120460  sumni 0.00000
 ne = 1.0000

 iter:12  failiter:12  energy:     -1.115562446217  total:     -0.885485399004  error:     -0.000000459433
 In Bisection function HOMO = -0.362  LUMO =  1.573

 0.60526 = (-0.36237 + 1.57290)/2.0
 sum -  nocc_ = 1.00000000
 On Iteration in Bisection 0
 a: 1.00000  b:-0.50000

 0.12145 = (-0.36237 + 0.60526)/2.0
 sum -  nocc_ = 1.00000000
 On Iteration in Bisection 1
 a: 1.00000  b:-0.50000

 -0.12046 = (-0.36237 + 0.12145)/2.0
 sum -  nocc_ = 0.00000000
 ef = -0.12046 sum = 1.00000 

 Iter: 12  T:      100.000  val:-0.120460  sumni 0.00000
 ne = 1.0000

 iter:13  failiter:13  energy:     -1.115562540551  total:     -0.885485493338  error:     -0.000000094334
 In Bisection function HOMO = -0.362  LUMO =  1.573

 0.60526 = (-0.36237 + 1.57290)/2.0
 sum -  nocc_ = 1.00000000
 On Iteration in Bisection 0
 a: 1.00000  b:-0.50000

 0.12145 = (-0.36237 + 0.60526)/2.0
 sum -  nocc_ = 1.00000000
 On Iteration in Bisection 1
 a: 1.00000  b:-0.50000

 -0.12046 = (-0.36237 + 0.12145)/2.0
 sum -  nocc_ = 0.00000000
 ef = -0.12046 sum = 1.00000 

 Iter: 13  T:      100.000  val:-0.120460  sumni 0.00000
 ne = 1.0000

 iter:14  failiter:14  energy:     -1.115562559746  total:     -0.885485512533  error:     -0.000000019196
 In Bisection function HOMO = -0.362  LUMO =  1.573

 0.60526 = (-0.36237 + 1.57290)/2.0
 sum -  nocc_ = 1.00000000
 On Iteration in Bisection 0
 a: 1.00000  b:-0.50000

 0.12145 = (-0.36237 + 0.60526)/2.0
 sum -  nocc_ = 1.00000000
 On Iteration in Bisection 1
 a: 1.00000  b:-0.50000

 -0.12046 = (-0.36237 + 0.12145)/2.0
 sum -  nocc_ = 0.00000000
 ef = -0.12046 sum = 1.00000 

 Iter: 14  T:      100.000  val:-0.120460  sumni 0.00000
 ne = 1.0000

 iter:15  failiter:15  energy:     -1.115562563622  total:     -0.885485516409  error:     -0.000000003876
 In Bisection function HOMO = -0.362  LUMO =  1.573

 0.60526 = (-0.36237 + 1.57290)/2.0
 sum -  nocc_ = 1.00000000
 On Iteration in Bisection 0
 a: 1.00000  b:-0.50000

 0.12145 = (-0.36237 + 0.60526)/2.0
 sum -  nocc_ = 1.00000000
 On Iteration in Bisection 1
 a: 1.00000  b:-0.50000

 -0.12046 = (-0.36237 + 0.12145)/2.0
 sum -  nocc_ = 0.00000000
 ef = -0.12046 sum = 1.00000 

 Iter: 15  T:      100.000  val:-0.120460  sumni 0.00000
 ne = 1.0000

 iter:16  failiter:16  energy:     -1.115562564400  total:     -0.885485517187  error:     -0.000000000778
 In Bisection function HOMO = -0.362  LUMO =  1.573

 0.60526 = (-0.36237 + 1.57290)/2.0
 sum -  nocc_ = 1.00000000
 On Iteration in Bisection 0
 a: 1.00000  b:-0.50000

 0.12145 = (-0.36237 + 0.60526)/2.0
 sum -  nocc_ = 1.00000000
 On Iteration in Bisection 1
 a: 1.00000  b:-0.50000

 -0.12046 = (-0.36237 + 0.12145)/2.0
 sum -  nocc_ = 0.00000000
 ef = -0.12046 sum = 1.00000 

 Iter: 16  T:      100.000  val:-0.120460  sumni 0.00000
 ne = 1.0000

 iter:17  failiter:17  energy:     -1.115562564555  total:     -0.885485517342  error:     -0.000000000155
 In Bisection function HOMO = -0.362  LUMO =  1.573

 0.60526 = (-0.36237 + 1.57290)/2.0
 sum -  nocc_ = 1.00000000
 On Iteration in Bisection 0
 a: 1.00000  b:-0.50000

 0.12145 = (-0.36237 + 0.60526)/2.0
 sum -  nocc_ = 1.00000000
 On Iteration in Bisection 1
 a: 1.00000  b:-0.50000

 -0.12046 = (-0.36237 + 0.12145)/2.0
 sum -  nocc_ = 0.00000000
 ef = -0.12046 sum = 1.00000 

 Iter: 17  T:      100.000  val:-0.120460  sumni 0.00000
 ne = 1.0000

 iter:18  failiter:18  energy:     -1.115562564586  total:     -0.885485517373  error:     -0.000000000031
 In Bisection function HOMO = -0.362  LUMO =  1.573

 0.60526 = (-0.36237 + 1.57290)/2.0
 sum -  nocc_ = 1.00000000
 On Iteration in Bisection 0
 a: 1.00000  b:-0.50000

 0.12145 = (-0.36237 + 0.60526)/2.0
 sum -  nocc_ = 1.00000000
 On Iteration in Bisection 1
 a: 1.00000  b:-0.50000

 -0.12046 = (-0.36237 + 0.12145)/2.0
 sum -  nocc_ = 0.00000000
 ef = -0.12046 sum = 1.00000 

 Iter: 18  T:      100.000  val:-0.120460  sumni 0.00000
 ne = 1.0000

 iter:19  failiter:19  energy:     -1.115562564592  total:     -0.885485517379  error:     -0.000000000006
 In Bisection function HOMO = -0.362  LUMO =  1.573

 0.60526 = (-0.36237 + 1.57290)/2.0
 sum -  nocc_ = 1.00000000
 On Iteration in Bisection 0
 a: 1.00000  b:-0.50000

 0.12145 = (-0.36237 + 0.60526)/2.0
 sum -  nocc_ = 1.00000000
 On Iteration in Bisection 1
 a: 1.00000  b:-0.50000

 -0.12046 = (-0.36237 + 0.12145)/2.0
 sum -  nocc_ = 0.00000000
 ef = -0.12046 sum = 1.00000 

 Iter: 19  T:      100.000  val:-0.120460  sumni 0.00000
 ne = 1.0000

 iter:20  failiter:20  energy:     -1.115562564593  total:     -0.885485517380  error:     -0.000000000001
 In Bisection function HOMO = -0.362  LUMO =  1.573

 0.60526 = (-0.36237 + 1.57290)/2.0
 sum -  nocc_ = 1.00000000
 On Iteration in Bisection 0
 a: 1.00000  b:-0.50000

 0.12145 = (-0.36237 + 0.60526)/2.0
 sum -  nocc_ = 1.00000000
 On Iteration in Bisection 1
 a: 1.00000  b:-0.50000

 -0.12046 = (-0.36237 + 0.12145)/2.0
 sum -  nocc_ = 0.00000000
 ef = -0.12046 sum = 1.00000 

 Iter: 20  T:      100.000  val:-0.120460  sumni 0.00000
 ne = 1.0000

 iter:21  failiter:21  energy:     -1.115562564593  total:     -0.885485517380  error:     -0.000000000000
 FTHFEnergy =    -0.885486
 FD_dis[0] = 1.00000000 with -0.362368 eig value
 FD_dis[1] = 0.00000000 with -0.067758 eig value
 FD_dis[2] = 0.00000000 with 0.643353 eig value
 FD_dis[3] = 0.00000000 with 0.660289 eig value
 FD_dis[4] = 0.00000000 with 1.426980 eig value
 FD_dis[5] = 0.00000000 with 1.462521 eig value
 FD_dis[6] = 0.00000000 with 1.462521 eig value
 FD_dis[7] = 0.00000000 with 1.477990 eig value
 FD_dis[8] = 0.00000000 with 1.477990 eig value
 FD_dis[9] = 0.00000000 with 1.572895 eig value
*** PSI4 exiting successfully. Buy a developer a beer!
