    -----------------------------------------------------------------------
          PSI4: An Open-Source Ab Initio Electronic Structure Package
                              PSI 4.0 Driver

               Git: Rev {master} 556e8139d3cfa1f96ccffe2cdf22cc56a185d2b2

    J. M. Turney, A. C. Simmonett, R. M. Parrish, E. G. Hohenstein,
    F. A. Evangelista, J. T. Fermann, B. J. Mintz, L. A. Burns, J. J. Wilke,
    M. L. Abrams, N. J. Russ, M. L. Leininger, C. L. Janssen, E. T. Seidl,
    W. D. Allen, H. F. Schaefer, R. A. King, E. F. Valeev, C. D. Sherrill,
    and T. D. Crawford, WIREs Comput. Mol. Sci. 2, 556-565 (2012)
    (doi: 10.1002/wcms.93)

                         Additional Contributions by
    A. E. DePrince, M. Saitow, U. Bozkaya, A. Yu. Sokolov
    -----------------------------------------------------------------------

    Process ID:  14559
    PSI4DATADIR: /Users/kevinhannon/Programs/psi4cmake/psi4/lib
    Memory level set to 256.000 MB

  ==> Input File <==

--------------------------------------------------------------------------

# PYTHONPATH must include directory above plugin directory.
#     Define either externally or here, then import plugin.
sys.path.insert(0, '/Users/kevinhannon/Programs/Quantum_Programs/Quantum-Programs/GS/')
import scf

molecule {
0 1
H
H 1 0.80000
symmetry c1
units angstrom
}


set {
  basis cc-pvdz
  reference rhf
  scf_type  pk
}

set scf {
  DO_FTHF true
  MAX_ITER 130
  MAX_TEMP 20000
  TEMP_INCREMENT 0
  bisect  true
  bisect_iter  40
}
energy('rhf')
energy('scf')


--------------------------------------------------------------------------

*** tstart() called on Kevins-MacBook-Pro.local
*** at Sun Apr 12 15:45:55 2015

/Users/kevinhannon/Programs/Quantum_Programs/Quantum-Programs/GS/scf/scf.so loaded.

*** tstart() called on Kevins-MacBook-Pro.local
*** at Sun Apr 12 15:45:55 2015


         ---------------------------------------------------------
                                   SCF
            by Justin Turney, Rob Parrish, and Andy Simmonett
                              RHF Reference
                        1 Threads,    256 MiB Core
         ---------------------------------------------------------

  ==> Geometry <==

    Molecular point group: c1
    Full point group: D_inf_h

    Geometry (in Angstrom), charge = 0, multiplicity = 1:

       Center              X                  Y                   Z       
    ------------   -----------------  -----------------  -----------------
           H          0.000000000000     0.000000000000    -0.400000000000
           H          0.000000000000     0.000000000000     0.400000000000

  Running in c1 symmetry.

  Rotational constants: A = ************  B =     52.27107  C =     52.27107 [cm^-1]
  Rotational constants: A = ************  B = 1567047.19605  C = 1567047.19605 [MHz]
  Nuclear repulsion =    0.661471510737500

  Charge       = 0
  Multiplicity = 1
  Electrons    = 2
  Nalpha       = 1
  Nbeta        = 1

  ==> Algorithm <==

  SCF Algorithm Type is PK.
  DIIS enabled.
  MOM disabled.
  Fractional occupation disabled.
  Guess Type is CORE.
  Energy threshold   = 1.00e-06
  Density threshold  = 1.00e-06
  Integral threshold = 0.00e+00

  ==> Primary Basis <==

  Basis Set: CC-PVDZ
    Number of shells: 6
    Number of basis function: 10
    Number of Cartesian functions: 10
    Spherical Harmonics?: true
    Max angular momentum: 1

  ==> Pre-Iterations <==

   -------------------------------------------------------
    Irrep   Nso     Nmo     Nalpha   Nbeta   Ndocc  Nsocc
   -------------------------------------------------------
     A         10      10       0       0       0       0
   -------------------------------------------------------
    Total      10      10       1       1       1       0
   -------------------------------------------------------

  Starting with a DF guess...

 OEINTS: Overlap, kinetic, potential, dipole, and quadrupole integrals
         stored in file 35.

  ==> Integral Setup <==

  ==> DFJK: Density-Fitted J/K Matrices <==

    J tasked:                  Yes
    K tasked:                  Yes
    wK tasked:                  No
    OpenMP threads:              1
    Integrals threads:           1
    Memory (MB):               183
    Algorithm:                Core
    Integral Cache:           NONE
    Schwarz Cutoff:          1E-12
    Fitting Condition:       1E-12

   => Auxiliary Basis Set <=

  Basis Set: 
    Number of shells: 18
    Number of basis function: 46
    Number of Cartesian functions: 50
    Spherical Harmonics?: true
    Max angular momentum: 2

  Minimum eigenvalue in the overlap matrix is 6.1160120649E-02.
  Using Symmetric Orthogonalization.
  SCF Guess: Core (One-Electron) Hamiltonian.

  ==> Iterations <==

                           Total Energy        Delta E     RMS |[F,P]|

   @DF-RHF iter   1:    -1.07344704427797   -1.07345e+00   2.23369e-02 
   @DF-RHF iter   2:    -1.12515610498884   -5.17091e-02   4.07233e-03 DIIS
   @DF-RHF iter   3:    -1.12699900283006   -1.84290e-03   2.09863e-04 DIIS
   @DF-RHF iter   4:    -1.12700147279628   -2.46997e-06   1.41134e-05 DIIS
   @DF-RHF iter   5:    -1.12700149542920   -2.26329e-08   2.95123e-08 DIIS

  DF guess converged.

  ==> Integral Setup <==

 MINTS: Wrapper to libmints.
   by Justin Turney

   Calculation information:
      Number of atoms:                   2
      Number of AO shells:               6
      Number of SO shells:               6
      Number of primitives:             10
      Number of atomic orbitals:        10
      Number of basis functions:        10

      Number of irreps:                  1
      Integral cutoff                 0.00e+00
      Number of functions per irrep: [  10 ]

 OEINTS: Overlap, kinetic, potential, dipole, and quadrupole integrals
         stored in file 35.

      Computing two-electron integrals...done
      Computed 512 non-zero two-electron integrals.
        Stored in file 33.

	Batch   1 pq = [       0,      55] index = [             0,1540]
  ==> DiskJK: Disk-Based J/K Matrices <==

    J tasked:                  Yes
    K tasked:                  Yes
    wK tasked:                  No
    Memory (MB):               183
    Schwarz Cutoff:          1E-12

   @RHF iter   6:    -1.12700072065743    7.74772e-07   1.87896e-07 DIIS

  ==> Post-Iterations <==

    Orbital Energies (a.u.)
    -----------------------

    Doubly Occupied:                                                      

       1A     -0.574936  

    Virtual:                                                              

       2A      0.185669     3A      0.493653     4A      0.896953  
       5A      1.287321     6A      1.287321     7A      1.897002  
       8A      2.002823     9A      2.002823    10A      3.294383  

    Final Occupation by Irrep:
              A 
    DOCC [     1 ]

  Energy converged.

  @RHF Final Energy:    -1.12700072065743

   => Energetics <=

    Nuclear Repulsion Energy =              0.6614715107375000
    One-Electron Energy =                  -2.4270716837770854
    Two-Electron Energy =                   0.6385994523821532
    DFT Exchange-Correlation Energy =       0.0000000000000000
    Empirical Dispersion Energy =           0.0000000000000000
    PCM Polarization Energy =               0.0000000000000000
    EFP Energy =                            0.0000000000000000
    Total Energy =                         -1.1270007206574322

    Alert: EFP and PCM quantities not currently incorporated into SCF psivars.

Properties will be evaluated at   0.000000,   0.000000,   0.000000 Bohr
  ==> Properties <==


Properties computed using the SCF density matrix

  Nuclear Dipole Moment: (a.u.)
     X:     0.0000      Y:     0.0000      Z:     0.0000

  Electronic Dipole Moment: (a.u.)
     X:     0.0000      Y:    -0.0000      Z:     0.0000

  Dipole Moment: (a.u.)
     X:     0.0000      Y:    -0.0000      Z:     0.0000     Total:     0.0000

  Dipole Moment: (Debye)
     X:     0.0000      Y:    -0.0000      Z:     0.0000     Total:     0.0000


  Saving occupied orbitals to File 180.

*** tstop() called on Kevins-MacBook-Pro.local at Sun Apr 12 15:45:56 2015
Module time:
	user time   =       0.20 seconds =       0.00 minutes
	system time =       0.01 seconds =       0.00 minutes
	total time  =          1 seconds =       0.02 minutes
Total time:
	user time   =       0.22 seconds =       0.00 minutes
	system time =       0.01 seconds =       0.00 minutes
	total time  =          1 seconds =       0.02 minutes

*** tstart() called on Kevins-MacBook-Pro.local
*** at Sun Apr 12 15:45:56 2015


         ---------------------------------------------------------
                                   SCF
            by Justin Turney, Rob Parrish, and Andy Simmonett
                              RHF Reference
                        1 Threads,    256 MiB Core
         ---------------------------------------------------------

  ==> Geometry <==

    Molecular point group: c1
    Full point group: D_inf_h

    Geometry (in Angstrom), charge = 0, multiplicity = 1:

       Center              X                  Y                   Z       
    ------------   -----------------  -----------------  -----------------
           H          0.000000000000     0.000000000000    -0.400000000000
           H          0.000000000000     0.000000000000     0.400000000000

  Running in c1 symmetry.

  Rotational constants: A = ************  B =     52.27107  C =     52.27107 [cm^-1]
  Rotational constants: A = ************  B = 1567047.19605  C = 1567047.19605 [MHz]
  Nuclear repulsion =    0.661471510737500

  Charge       = 0
  Multiplicity = 1
  Electrons    = 2
  Nalpha       = 1
  Nbeta        = 1

  ==> Algorithm <==

  SCF Algorithm Type is PK.
  DIIS enabled.
  MOM disabled.
  Fractional occupation disabled.
  Guess Type is CORE.
  Energy threshold   = 1.00e-08
  Density threshold  = 1.00e-08
  Integral threshold = 0.00e+00

  ==> Primary Basis <==

  Basis Set: CC-PVDZ
    Number of shells: 6
    Number of basis function: 10
    Number of Cartesian functions: 10
    Spherical Harmonics?: true
    Max angular momentum: 1

  ==> Pre-Iterations <==

   -------------------------------------------------------
    Irrep   Nso     Nmo     Nalpha   Nbeta   Ndocc  Nsocc
   -------------------------------------------------------
     A         10      10       0       0       0       0
   -------------------------------------------------------
    Total      10      10       1       1       1       0
   -------------------------------------------------------

  Starting with a DF guess...

 OEINTS: Overlap, kinetic, potential, dipole, and quadrupole integrals
         stored in file 35.

  ==> Integral Setup <==

  ==> DFJK: Density-Fitted J/K Matrices <==

    J tasked:                  Yes
    K tasked:                  Yes
    wK tasked:                  No
    OpenMP threads:              1
    Integrals threads:           1
    Memory (MB):               183
    Algorithm:                Core
    Integral Cache:           NONE
    Schwarz Cutoff:          1E-12
    Fitting Condition:       1E-12

   => Auxiliary Basis Set <=

  Basis Set: 
    Number of shells: 18
    Number of basis function: 46
    Number of Cartesian functions: 50
    Spherical Harmonics?: true
    Max angular momentum: 2

  Minimum eigenvalue in the overlap matrix is 6.1160120649E-02.
  Using Symmetric Orthogonalization.
  SCF Guess: Core (One-Electron) Hamiltonian.

  ==> Iterations <==

                           Total Energy        Delta E     RMS |[F,P]|

   @DF-RHF iter   1:    -1.07344704427797   -1.07345e+00   2.23369e-02 
   @DF-RHF iter   2:    -1.12515610498884   -5.17091e-02   4.07233e-03 DIIS
   @DF-RHF iter   3:    -1.12699900283006   -1.84290e-03   2.09863e-04 DIIS
   @DF-RHF iter   4:    -1.12700147279628   -2.46997e-06   1.41134e-05 DIIS
   @DF-RHF iter   5:    -1.12700149542920   -2.26329e-08   2.95123e-08 DIIS
   @DF-RHF iter   6:    -1.12700149542930   -9.99201e-14   2.79295e-11 DIIS

  DF guess converged.

  ==> Integral Setup <==

 MINTS: Wrapper to libmints.
   by Justin Turney

   Calculation information:
      Number of atoms:                   2
      Number of AO shells:               6
      Number of SO shells:               6
      Number of primitives:             10
      Number of atomic orbitals:        10
      Number of basis functions:        10

      Number of irreps:                  1
      Integral cutoff                 0.00e+00
      Number of functions per irrep: [  10 ]

 OEINTS: Overlap, kinetic, potential, dipole, and quadrupole integrals
         stored in file 35.

      Computing two-electron integrals...done
      Computed 512 non-zero two-electron integrals.
        Stored in file 33.

	Batch   1 pq = [       0,      55] index = [             0,1540]
  ==> DiskJK: Disk-Based J/K Matrices <==

    J tasked:                  Yes
    K tasked:                  Yes
    wK tasked:                  No
    Memory (MB):               183
    Schwarz Cutoff:          1E-12

   @RHF iter   7:    -1.12700072065743    7.74772e-07   1.87876e-07 DIIS
   @RHF iter   8:    -1.12700072065992   -2.48268e-12   2.65174e-08 DIIS
   @RHF iter   9:    -1.12700072065997   -5.61773e-14   8.10394e-10 DIIS

  ==> Post-Iterations <==

    Orbital Energies (a.u.)
    -----------------------

    Doubly Occupied:                                                      

       1A     -0.574937  

    Virtual:                                                              

       2A      0.185669     3A      0.493653     4A      0.896952  
       5A      1.287321     6A      1.287321     7A      1.897001  
       8A      2.002822     9A      2.002822    10A      3.294382  

    Final Occupation by Irrep:
              A 
    DOCC [     1 ]

  Energy converged.

  @RHF Final Energy:    -1.12700072065997

   => Energetics <=

    Nuclear Repulsion Energy =              0.6614715107375000
    One-Electron Energy =                  -2.4270710153296902
    Two-Electron Energy =                   0.6385987839322171
    DFT Exchange-Correlation Energy =       0.0000000000000000
    Empirical Dispersion Energy =           0.0000000000000000
    PCM Polarization Energy =               0.0000000000000000
    EFP Energy =                            0.0000000000000000
    Total Energy =                         -1.1270007206599730

    Alert: EFP and PCM quantities not currently incorporated into SCF psivars.

Properties will be evaluated at   0.000000,   0.000000,   0.000000 Bohr
  ==> Properties <==


Properties computed using the SCF density matrix

  Nuclear Dipole Moment: (a.u.)
     X:     0.0000      Y:     0.0000      Z:     0.0000

  Electronic Dipole Moment: (a.u.)
     X:    -0.0000      Y:     0.0000      Z:     0.0000

  Dipole Moment: (a.u.)
     X:    -0.0000      Y:     0.0000      Z:     0.0000     Total:     0.0000

  Dipole Moment: (Debye)
     X:    -0.0000      Y:     0.0000      Z:     0.0000     Total:     0.0000


  Saving occupied orbitals to File 180.

*** tstop() called on Kevins-MacBook-Pro.local at Sun Apr 12 15:45:56 2015
Module time:
	user time   =       0.19 seconds =       0.00 minutes
	system time =       0.01 seconds =       0.00 minutes
	total time  =          0 seconds =       0.00 minutes
Total time:
	user time   =       0.41 seconds =       0.01 minutes
	system time =       0.02 seconds =       0.00 minutes
	total time  =          1 seconds =       0.02 minutes
Reading options from the SCF block
Calling plugin scf.so.
    Molecular point group: c1
    Full point group: D_inf_h

    Geometry (in Angstrom), charge = 0, multiplicity = 1:

       Center              X                  Y                   Z       
    ------------   -----------------  -----------------  -----------------
           H          0.000000000000     0.000000000000    -0.400000000000
           H          0.000000000000     0.000000000000     0.400000000000


    Nuclear repulsion energy:       0.66147151

  ## Overlap (Symmetry 0) ##
  Irrep: 1 Size: 10 x 10

                 1                   2                   3                   4                   5

    1     1.00000000000000     0.68486025149275     0.00000000000000     0.00000000000000     0.00000000000000
    2     0.68486025149275     1.00000000000000     0.00000000000000     0.00000000000000     0.00000000000000
    3     0.00000000000000     0.00000000000000     1.00000000000000     0.00000000000000     0.00000000000000
    4     0.00000000000000     0.00000000000000     0.00000000000000     1.00000000000000     0.00000000000000
    5     0.00000000000000     0.00000000000000     0.00000000000000     0.00000000000000     1.00000000000000
    6     0.52286174201775     0.54755534784951     0.52022369544393     0.00000000000000     0.00000000000000
    7     0.54755534784951     0.86986750500462     0.17145475865095     0.00000000000000     0.00000000000000
    8    -0.52022369544393    -0.17145475865095    -0.28824348757569     0.00000000000000     0.00000000000000
    9     0.00000000000000     0.00000000000000     0.00000000000000     0.43571255594559     0.00000000000000
   10     0.00000000000000     0.00000000000000     0.00000000000000     0.00000000000000     0.43571255594559

                 6                   7                   8                   9                  10

    1     0.52286174201775     0.54755534784951    -0.52022369544393     0.00000000000000     0.00000000000000
    2     0.54755534784951     0.86986750500462    -0.17145475865095     0.00000000000000     0.00000000000000
    3     0.52022369544393     0.17145475865095    -0.28824348757569     0.00000000000000     0.00000000000000
    4     0.00000000000000     0.00000000000000     0.00000000000000     0.43571255594559     0.00000000000000
    5     0.00000000000000     0.00000000000000     0.00000000000000     0.00000000000000     0.43571255594559
    6     1.00000000000000     0.68486025149275    -0.00000000000000     0.00000000000000     0.00000000000000
    7     0.68486025149275     1.00000000000000     0.00000000000000     0.00000000000000     0.00000000000000
    8    -0.00000000000000     0.00000000000000     1.00000000000000     0.00000000000000     0.00000000000000
    9     0.00000000000000     0.00000000000000     0.00000000000000     1.00000000000000     0.00000000000000
   10     0.00000000000000     0.00000000000000     0.00000000000000     0.00000000000000     1.00000000000000



  ## Kinetic (Symmetry 0) ##
  Irrep: 1 Size: 10 x 10

                 1                   2                   3                   4                   5

    1     0.96945722711242     0.20123413106538    -0.00000000000000     0.00000000000000     0.00000000000000
    2     0.20123413106538     0.18300000000000     0.00000000000000     0.00000000000000     0.00000000000000
    3    -0.00000000000000     0.00000000000000     1.81750000000000     0.00000000000000     0.00000000000000
    4     0.00000000000000     0.00000000000000     0.00000000000000     1.81750000000000     0.00000000000000
    5     0.00000000000000     0.00000000000000     0.00000000000000     0.00000000000000     1.81750000000000
    6     0.22320202666956     0.13668895243098     0.57466260355549     0.00000000000000     0.00000000000000
    7     0.13668895243098     0.14439056551685     0.08100511914912     0.00000000000000     0.00000000000000
    8    -0.57466260355549    -0.08100511914912    -0.87610769381398     0.00000000000000     0.00000000000000
    9     0.00000000000000     0.00000000000000     0.00000000000000     0.52874954861112     0.00000000000000
   10     0.00000000000000     0.00000000000000     0.00000000000000     0.00000000000000     0.52874954861112

                 6                   7                   8                   9                  10

    1     0.22320202666956     0.13668895243098    -0.57466260355549     0.00000000000000     0.00000000000000
    2     0.13668895243098     0.14439056551685    -0.08100511914912     0.00000000000000     0.00000000000000
    3     0.57466260355549     0.08100511914912    -0.87610769381398     0.00000000000000     0.00000000000000
    4     0.00000000000000     0.00000000000000     0.00000000000000     0.52874954861112     0.00000000000000
    5     0.00000000000000     0.00000000000000     0.00000000000000     0.00000000000000     0.52874954861112
    6     0.96945722711242     0.20123413106538     0.00000000000000     0.00000000000000     0.00000000000000
    7     0.20123413106538     0.18300000000000     0.00000000000000     0.00000000000000     0.00000000000000
    8     0.00000000000000     0.00000000000000     1.81750000000000     0.00000000000000     0.00000000000000
    9     0.00000000000000     0.00000000000000     0.00000000000000     1.81750000000000     0.00000000000000
   10     0.00000000000000     0.00000000000000     0.00000000000000     0.00000000000000     1.81750000000000



  ## Potential (Symmetry 0) ##
  Irrep: 1 Size: 10 x 10

                 1                   2                   3                   4                   5

    1    -2.01999573373867    -1.05947555189430    -0.23854214439466     0.00000000000000     0.00000000000000
    2    -1.05947555189430    -1.02640812556924    -0.18730269822997     0.00000000000000     0.00000000000000
    3    -0.23854214439466    -0.18730269822997    -1.69525913851199     0.00000000000000     0.00000000000000
    4     0.00000000000000     0.00000000000000     0.00000000000000    -1.47082028848975     0.00000000000000
    5     0.00000000000000     0.00000000000000     0.00000000000000     0.00000000000000    -1.47082028848975
    6    -1.04010027005479    -0.87663383857620    -1.12926131703013     0.00000000000000     0.00000000000000
    7    -0.87663383857620    -0.92645125286486    -0.40016799044116     0.00000000000000     0.00000000000000
    8     1.12926131703013     0.40016799044116     0.63682084985905     0.00000000000000     0.00000000000000
    9     0.00000000000000     0.00000000000000     0.00000000000000    -0.67932545791057     0.00000000000000
   10     0.00000000000000     0.00000000000000     0.00000000000000     0.00000000000000    -0.67932545791057

                 6                   7                   8                   9                  10

    1    -1.04010027005479    -0.87663383857620     1.12926131703013     0.00000000000000     0.00000000000000
    2    -0.87663383857620    -0.92645125286486     0.40016799044116     0.00000000000000     0.00000000000000
    3    -1.12926131703013    -0.40016799044116     0.63682084985905     0.00000000000000     0.00000000000000
    4     0.00000000000000     0.00000000000000     0.00000000000000    -0.67932545791057     0.00000000000000
    5     0.00000000000000     0.00000000000000     0.00000000000000     0.00000000000000    -0.67932545791057
    6    -2.01999573373867    -1.05947555189430     0.23854214439466     0.00000000000000     0.00000000000000
    7    -1.05947555189430    -1.02640812556924     0.18730269822997     0.00000000000000     0.00000000000000
    8     0.23854214439466     0.18730269822997    -1.69525913851199     0.00000000000000     0.00000000000000
    9     0.00000000000000     0.00000000000000     0.00000000000000    -1.47082028848975     0.00000000000000
   10     0.00000000000000     0.00000000000000     0.00000000000000     0.00000000000000    -1.47082028848975



  ## One Electron Ints (Symmetry 0) ##
  Irrep: 1 Size: 10 x 10

                 1                   2                   3                   4                   5

    1    -1.05053850662625    -0.85824142082891    -0.23854214439466     0.00000000000000     0.00000000000000
    2    -0.85824142082891    -0.84340812556924    -0.18730269822997     0.00000000000000     0.00000000000000
    3    -0.23854214439466    -0.18730269822997     0.12224086148801     0.00000000000000     0.00000000000000
    4     0.00000000000000     0.00000000000000     0.00000000000000     0.34667971151025     0.00000000000000
    5     0.00000000000000     0.00000000000000     0.00000000000000     0.00000000000000     0.34667971151025
    6    -0.81689824338523    -0.73994488614523    -0.55459871347464     0.00000000000000     0.00000000000000
    7    -0.73994488614523    -0.78206068734802    -0.31916287129204     0.00000000000000     0.00000000000000
    8     0.55459871347464     0.31916287129204    -0.23928684395493     0.00000000000000     0.00000000000000
    9     0.00000000000000     0.00000000000000     0.00000000000000    -0.15057590929945     0.00000000000000
   10     0.00000000000000     0.00000000000000     0.00000000000000     0.00000000000000    -0.15057590929945

                 6                   7                   8                   9                  10

    1    -0.81689824338523    -0.73994488614523     0.55459871347464     0.00000000000000     0.00000000000000
    2    -0.73994488614523    -0.78206068734802     0.31916287129204     0.00000000000000     0.00000000000000
    3    -0.55459871347464    -0.31916287129204    -0.23928684395493     0.00000000000000     0.00000000000000
    4     0.00000000000000     0.00000000000000     0.00000000000000    -0.15057590929945     0.00000000000000
    5     0.00000000000000     0.00000000000000     0.00000000000000     0.00000000000000    -0.15057590929945
    6    -1.05053850662625    -0.85824142082891     0.23854214439466     0.00000000000000     0.00000000000000
    7    -0.85824142082891    -0.84340812556924     0.18730269822997     0.00000000000000     0.00000000000000
    8     0.23854214439466     0.18730269822997     0.12224086148801     0.00000000000000     0.00000000000000
    9     0.00000000000000     0.00000000000000     0.00000000000000     0.34667971151025     0.00000000000000
   10     0.00000000000000     0.00000000000000     0.00000000000000     0.00000000000000     0.34667971151025




	There are 0 unique integrals

  ## Fock (Symmetry 0) ##
  Irrep: 1 Size: 10 x 10

                 1                   2                   3                   4                   5

    1    -0.12975605159544    -0.26426218665323     0.35179377364388     0.00000000000000     0.00000000000000
    2    -0.26426218665323    -0.35826155170989     0.16860777194992     0.00000000000000     0.00000000000000
    3     0.35179377364388     0.16860777194992     0.80385177258857     0.00000000000000     0.00000000000000
    4     0.00000000000000     0.00000000000000     0.00000000000000     0.50889983442518     0.00000000000000
    5     0.00000000000000     0.00000000000000     0.00000000000000     0.00000000000000     0.50889983442518
    6    -0.70627822852590    -0.17095828158815    -0.87827719775204     0.00000000000000     0.00000000000000
    7    -0.17095828158815    -0.15235138494081    -0.14482544865728     0.00000000000000     0.00000000000000
    8     0.87827719775204     0.14482544865728     0.25354166752876     0.00000000000000     0.00000000000000
    9     0.00000000000000     0.00000000000000     0.00000000000000    -0.37230995687713    -0.00000000000000
   10     0.00000000000000     0.00000000000000     0.00000000000000    -0.00000000000000    -0.37230995687713

                 6                   7                   8                   9                  10

    1    -0.70627822852590    -0.17095828158816     0.87827719775204     0.00000000000000     0.00000000000000
    2    -0.17095828158815    -0.15235138494081     0.14482544865728     0.00000000000000     0.00000000000000
    3    -0.87827719775204    -0.14482544865728     0.25354166752876     0.00000000000000     0.00000000000000
    4     0.00000000000000     0.00000000000000     0.00000000000000    -0.37230995687713    -0.00000000000000
    5     0.00000000000000     0.00000000000000     0.00000000000000    -0.00000000000000    -0.37230995687713
    6    -0.12975605159544    -0.26426218665323    -0.35179377364388     0.00000000000000     0.00000000000000
    7    -0.26426218665323    -0.35826155170989    -0.16860777194992     0.00000000000000     0.00000000000000
    8    -0.35179377364388    -0.16860777194992     0.80385177258857     0.00000000000000     0.00000000000000
    9     0.00000000000000     0.00000000000000     0.00000000000000     0.50889983442518     0.00000000000000
   10     0.00000000000000     0.00000000000000     0.00000000000000     0.00000000000000     0.50889983442518



  ## C (Symmetry 0) ##
  Irrep: 1 Size: 10 x 10

                 1                   2                   3                   4                   5

    1     1.19142674107298     0.17888756146647     0.68152036893865     0.04053055161852    -0.18096876550950
    2     0.48649954045117     0.68585602946693    -0.09926619590260     0.05491916576696    -0.01796873408857
    3     0.90139644500837    -0.63577670442344     0.43035284559192    -0.13070994567869    -0.18469381216925
    4    -0.36625549255573     0.63164377924634     0.23068900745859     0.00000000000000     0.17558989655131
    5     0.11007803279094     0.01413289287645     0.13606946684220    -0.23415980346481     0.72904290291545
    6    -0.88614947996855     0.23544493007698    -0.01532745918097     0.93289575238095     0.43941648294879
    7    -0.07822181695453    -0.60909656185851    -1.00578372107908    -0.44118602987779    -0.08748074452513
    8     0.70361613226417    -0.00068580252469     0.36616936063596     0.70028308592065    -0.13308539974991
    9     0.08398679214097    -0.14484352009172    -0.05289976563473     0.00000000000000    -0.76572473373273
   10    -0.48003600437245    -0.06163171029335    -0.59338127257482     0.05369566092822    -0.16717831129780

                 6                   7                   8                   9                  10

    1     1.54328561832141     0.49901400856239    -0.36362211582487    -1.16740196329445    -0.18096876550950
    2    -1.39865132592327    -1.02928230613956    -1.60393416659169    -0.16680837875578    -0.01796873408857
    3     0.69375254901250    -0.82469421364229    -0.61795542172423    -1.01935689740892    -0.18469381216925
    4     0.36625549255573    -0.63164377924634     0.23068900745860    -0.00000000000000    -0.17558989655131
    5    -0.11007803279094    -0.01413289287645     0.13606946684220    -0.23415980346481     0.72904290291545
    6    -0.81387690574322     0.30119959453269     0.08062444777463     1.80329947479035     0.43941648294879
    7     0.94580816545150     0.32258116800555     1.93097664242511    -0.10354637076577    -0.08748074452513
    8     0.56725664382201    -0.12474769604340    -0.48936773923093    -1.52899035961732    -0.13308539974991
    9    -0.08398679214097     0.14484352009172    -0.05289976563473    -0.00000000000000     0.76572473373273
   10     0.48003600437245     0.06163171029335    -0.59338127257482     0.05369566092822    -0.16717831129780




 In Bisection function HOMO = -1.242  LUMO =  2.085

 0.42169 = (-1.24167 + 2.08506)/2.0
 sum -  nocc_ = 4.98433625
 On Iteration in Bisection 0
 a: 4.98434  b:-0.49995

 -0.40999 = (-1.24167 + 0.42169)/2.0
 sum -  nocc_ = 1.12709815
 On Iteration in Bisection 1
 a: 1.12710  b:-0.49995

 -0.82583 = (-1.24167 + -0.40999)/2.0
 sum -  nocc_ = 0.03603105
 On Iteration in Bisection 2
 a: 0.03603  b:-0.49995

 -1.03375 = (-1.24167 + -0.82583)/2.0
 sum -  nocc_ = -0.03470296
 On Iteration in Bisection 3
 a: -0.03470  b:-0.49995

 -0.92979 = (-1.03375 + -0.82583)/2.0
 sum -  nocc_ = 0.00025948
 On Iteration in Bisection 4
 a: 0.00026  b:-0.03470

 -0.98177 = (-1.03375 + -0.92979)/2.0
 sum -  nocc_ = -0.01293984
 On Iteration in Bisection 5
 a: -0.01294  b:-0.03470

 -0.95578 = (-0.98177 + -0.92979)/2.0
 sum -  nocc_ = -0.00586433
 On Iteration in Bisection 6
 a: -0.00586  b:-0.01294

 -0.94278 = (-0.95578 + -0.92979)/2.0
 sum -  nocc_ = -0.00274705
 On Iteration in Bisection 7
 a: -0.00275  b:-0.00586

 -0.93629 = (-0.94278 + -0.92979)/2.0
 sum -  nocc_ = -0.00123756
 On Iteration in Bisection 8
 a: -0.00124  b:-0.00275

 -0.93304 = (-0.93629 + -0.92979)/2.0
 sum -  nocc_ = -0.00048843
 On Iteration in Bisection 9
 a: -0.00049  b:-0.00124

 -0.93141 = (-0.93304 + -0.92979)/2.0
 sum -  nocc_ = -0.00011444
 On Iteration in Bisection 10
 a: -0.00011  b:-0.00049

 -0.93060 = (-0.93141 + -0.92979)/2.0
 sum -  nocc_ = 0.00007251
 On Iteration in Bisection 11
 a: 0.00007  b:-0.00011

 -0.93101 = (-0.93141 + -0.93060)/2.0
 sum -  nocc_ = -0.00002096
 On Iteration in Bisection 12
 a: -0.00002  b:-0.00011

 -0.93081 = (-0.93101 + -0.93060)/2.0
 sum -  nocc_ = 0.00002578
 On Iteration in Bisection 13
 a: 0.00003  b:-0.00002

 -0.93091 = (-0.93101 + -0.93081)/2.0
 sum -  nocc_ = 0.00000241
 On Iteration in Bisection 14
 a: 0.00000  b:-0.00002

 -0.93096 = (-0.93101 + -0.93091)/2.0
 sum -  nocc_ = -0.00000928
 On Iteration in Bisection 15
 a: -0.00001  b:-0.00002

 -0.93093 = (-0.93096 + -0.93091)/2.0
 sum -  nocc_ = -0.00000344
 On Iteration in Bisection 16
 a: -0.00000  b:-0.00001

 -0.93092 = (-0.93093 + -0.93091)/2.0
 sum -  nocc_ = -0.00000051
 On Iteration in Bisection 17
 a: -0.00000  b:-0.00000

 -0.93091 = (-0.93092 + -0.93091)/2.0
 sum -  nocc_ = 0.00000095
 On Iteration in Bisection 18
 a: 0.00000  b:-0.00000

 -0.93092 = (-0.93092 + -0.93091)/2.0
 sum -  nocc_ = 0.00000022
 On Iteration in Bisection 19
 a: 0.00000  b:-0.00000

 -0.93092 = (-0.93092 + -0.93092)/2.0
 sum -  nocc_ = -0.00000015
 On Iteration in Bisection 20
 a: -0.00000  b:-0.00000

 -0.93092 = (-0.93092 + -0.93092)/2.0
 sum -  nocc_ = 0.00000003
 On Iteration in Bisection 21
 a: 0.00000  b:-0.00000

 -0.93092 = (-0.93092 + -0.93092)/2.0
 sum -  nocc_ = -0.00000006
 On Iteration in Bisection 22
 a: -0.00000  b:-0.00000

 -0.93092 = (-0.93092 + -0.93092)/2.0
 sum -  nocc_ = -0.00000001
 On Iteration in Bisection 23
 a: -0.00000  b:-0.00000

 -0.93092 = (-0.93092 + -0.93092)/2.0
 sum -  nocc_ = 0.00000001
 On Iteration in Bisection 24
 a: 0.00000  b:-0.00000

 -0.93092 = (-0.93092 + -0.93092)/2.0
 sum -  nocc_ = -0.00000000
 ef = -0.93092 sum = 1.00000 

 Iter: 0  T:    20000.000  val:-0.930917  sumni 0.00000
 ne = 1.0000

Nuc Replusion =       0.661471510737
 1st iteration =       0.050445050721
 In Bisection function HOMO = -0.302  LUMO =  3.169

 1.43332 = (-0.30214 + 3.16878)/2.0
 sum -  nocc_ = 4.88341021
 On Iteration in Bisection 0
 a: 4.88341  b:-0.49957

 0.56559 = (-0.30214 + 1.43332)/2.0
 sum -  nocc_ = 1.68537241
 On Iteration in Bisection 1
 a: 1.68537  b:-0.49957

 0.13173 = (-0.30214 + 0.56559)/2.0
 sum -  nocc_ = 0.28834010
 On Iteration in Bisection 2
 a: 0.28834  b:-0.49957

 -0.08520 = (-0.30214 + 0.13173)/2.0
 sum -  nocc_ = -0.01850376
 On Iteration in Bisection 3
 a: -0.01850  b:-0.49957

 0.02326 = (-0.08520 + 0.13173)/2.0
 sum -  nocc_ = 0.06230835
 On Iteration in Bisection 4
 a: 0.06231  b:-0.01850

 -0.03097 = (-0.08520 + 0.02326)/2.0
 sum -  nocc_ = 0.01647663
 On Iteration in Bisection 5
 a: 0.01648  b:-0.01850

 -0.05809 = (-0.08520 + -0.03097)/2.0
 sum -  nocc_ = -0.00093852
 On Iteration in Bisection 6
 a: -0.00094  b:-0.01850

 -0.04453 = (-0.05809 + -0.03097)/2.0
 sum -  nocc_ = 0.00761495
 On Iteration in Bisection 7
 a: 0.00761  b:-0.00094

 -0.05131 = (-0.05809 + -0.04453)/2.0
 sum -  nocc_ = 0.00332136
 On Iteration in Bisection 8
 a: 0.00332  b:-0.00094

 -0.05470 = (-0.05809 + -0.05131)/2.0
 sum -  nocc_ = 0.00118990
 On Iteration in Bisection 9
 a: 0.00119  b:-0.00094

 -0.05639 = (-0.05809 + -0.05470)/2.0
 sum -  nocc_ = 0.00012565
 On Iteration in Bisection 10
 a: 0.00013  b:-0.00094

 -0.05724 = (-0.05809 + -0.05639)/2.0
 sum -  nocc_ = -0.00040641
 On Iteration in Bisection 11
 a: -0.00041  b:-0.00094

 -0.05682 = (-0.05724 + -0.05639)/2.0
 sum -  nocc_ = -0.00014038
 On Iteration in Bisection 12
 a: -0.00014  b:-0.00041

 -0.05660 = (-0.05682 + -0.05639)/2.0
 sum -  nocc_ = -0.00000737
 On Iteration in Bisection 13
 a: -0.00001  b:-0.00014

 -0.05650 = (-0.05660 + -0.05639)/2.0
 sum -  nocc_ = 0.00005914
 On Iteration in Bisection 14
 a: 0.00006  b:-0.00001

 -0.05655 = (-0.05660 + -0.05650)/2.0
 sum -  nocc_ = 0.00002589
 On Iteration in Bisection 15
 a: 0.00003  b:-0.00001

 -0.05658 = (-0.05660 + -0.05655)/2.0
 sum -  nocc_ = 0.00000926
 On Iteration in Bisection 16
 a: 0.00001  b:-0.00001

 -0.05659 = (-0.05660 + -0.05658)/2.0
 sum -  nocc_ = 0.00000095
 On Iteration in Bisection 17
 a: 0.00000  b:-0.00001

 -0.05660 = (-0.05660 + -0.05659)/2.0
 sum -  nocc_ = -0.00000321
 On Iteration in Bisection 18
 a: -0.00000  b:-0.00001

 -0.05659 = (-0.05660 + -0.05659)/2.0
 sum -  nocc_ = -0.00000113
 On Iteration in Bisection 19
 a: -0.00000  b:-0.00000

 -0.05659 = (-0.05659 + -0.05659)/2.0
 sum -  nocc_ = -0.00000009
 On Iteration in Bisection 20
 a: -0.00000  b:-0.00000

 -0.05659 = (-0.05659 + -0.05659)/2.0
 sum -  nocc_ = 0.00000043
 On Iteration in Bisection 21
 a: 0.00000  b:-0.00000

 -0.05659 = (-0.05659 + -0.05659)/2.0
 sum -  nocc_ = 0.00000017
 On Iteration in Bisection 22
 a: 0.00000  b:-0.00000

 -0.05659 = (-0.05659 + -0.05659)/2.0
 sum -  nocc_ = 0.00000004
 On Iteration in Bisection 23
 a: 0.00000  b:-0.00000

 -0.05659 = (-0.05659 + -0.05659)/2.0
 sum -  nocc_ = -0.00000003
 On Iteration in Bisection 24
 a: -0.00000  b:-0.00000

 -0.05659 = (-0.05659 + -0.05659)/2.0
 sum -  nocc_ = 0.00000001
 ef = -0.05659 sum = 1.00000 

 Iter: 0  T:    20000.000  val:-0.056592  sumni 0.00000
 ne = 1.0000

 iter:1  failiter:1  energy:     -1.443106453064  total:     -0.781634942326  error:     -0.316105732404
 In Bisection function HOMO = -0.593  LUMO =  3.235

 1.32109 = (-0.59276 + 3.23495)/2.0
 sum -  nocc_ = 4.58461351
 On Iteration in Bisection 0
 a: 4.58461  b:-0.49999

 0.36416 = (-0.59276 + 1.32109)/2.0
 sum -  nocc_ = 1.11212275
 On Iteration in Bisection 1
 a: 1.11212  b:-0.49999

 -0.11430 = (-0.59276 + 0.36416)/2.0
 sum -  nocc_ = 0.01241088
 On Iteration in Bisection 2
 a: 0.01241  b:-0.49999

 -0.35353 = (-0.59276 + -0.11430)/2.0
 sum -  nocc_ = -0.02207057
 On Iteration in Bisection 3
 a: -0.02207  b:-0.49999

 -0.23392 = (-0.35353 + -0.11430)/2.0
 sum -  nocc_ = -0.00147147
 On Iteration in Bisection 4
 a: -0.00147  b:-0.02207

 -0.17411 = (-0.23392 + -0.11430)/2.0
 sum -  nocc_ = 0.00372561
 On Iteration in Bisection 5
 a: 0.00373  b:-0.00147

 -0.20401 = (-0.23392 + -0.17411)/2.0
 sum -  nocc_ = 0.00101386
 On Iteration in Bisection 6
 a: 0.00101  b:-0.00147

 -0.21896 = (-0.23392 + -0.20401)/2.0
 sum -  nocc_ = -0.00022268
 On Iteration in Bisection 7
 a: -0.00022  b:-0.00147

 -0.21149 = (-0.21896 + -0.20401)/2.0
 sum -  nocc_ = 0.00039289
 On Iteration in Bisection 8
 a: 0.00039  b:-0.00022

 -0.21523 = (-0.21896 + -0.21149)/2.0
 sum -  nocc_ = 0.00008496
 On Iteration in Bisection 9
 a: 0.00008  b:-0.00022

 -0.21710 = (-0.21896 + -0.21523)/2.0
 sum -  nocc_ = -0.00006883
 On Iteration in Bisection 10
 a: -0.00007  b:-0.00022

 -0.21616 = (-0.21710 + -0.21523)/2.0
 sum -  nocc_ = 0.00000807
 On Iteration in Bisection 11
 a: 0.00001  b:-0.00007

 -0.21663 = (-0.21710 + -0.21616)/2.0
 sum -  nocc_ = -0.00003038
 On Iteration in Bisection 12
 a: -0.00003  b:-0.00007

 -0.21639 = (-0.21663 + -0.21616)/2.0
 sum -  nocc_ = -0.00001116
 On Iteration in Bisection 13
 a: -0.00001  b:-0.00003

 -0.21628 = (-0.21639 + -0.21616)/2.0
 sum -  nocc_ = -0.00000155
 On Iteration in Bisection 14
 a: -0.00000  b:-0.00001

 -0.21622 = (-0.21628 + -0.21616)/2.0
 sum -  nocc_ = 0.00000326
 On Iteration in Bisection 15
 a: 0.00000  b:-0.00000

 -0.21625 = (-0.21628 + -0.21622)/2.0
 sum -  nocc_ = 0.00000086
 On Iteration in Bisection 16
 a: 0.00000  b:-0.00000

 -0.21626 = (-0.21628 + -0.21625)/2.0
 sum -  nocc_ = -0.00000034
 On Iteration in Bisection 17
 a: -0.00000  b:-0.00000

 -0.21626 = (-0.21626 + -0.21625)/2.0
 sum -  nocc_ = 0.00000026
 On Iteration in Bisection 18
 a: 0.00000  b:-0.00000

 -0.21626 = (-0.21626 + -0.21626)/2.0
 sum -  nocc_ = -0.00000004
 On Iteration in Bisection 19
 a: -0.00000  b:-0.00000

 -0.21626 = (-0.21626 + -0.21626)/2.0
 sum -  nocc_ = 0.00000011
 On Iteration in Bisection 20
 a: 0.00000  b:-0.00000

 -0.21626 = (-0.21626 + -0.21626)/2.0
 sum -  nocc_ = 0.00000003
 On Iteration in Bisection 21
 a: 0.00000  b:-0.00000

 -0.21626 = (-0.21626 + -0.21626)/2.0
 sum -  nocc_ = -0.00000001
 ef = -0.21626 sum = 1.00000 

 Iter: 1  T:    20000.000  val:-0.216259  sumni 0.00000
 ne = 1.0000

 iter:2  failiter:2  energy:     -1.797774124953  total:     -1.136302614216  error:     -0.354667671890
 In Bisection function HOMO = -0.579  LUMO =  3.285

 1.35308 = (-0.57877 + 3.28493)/2.0
 sum -  nocc_ = 4.52346699
 On Iteration in Bisection 0
 a: 4.52347  b:-0.49999

 0.38715 = (-0.57877 + 1.35308)/2.0
 sum -  nocc_ = 1.12549359
 On Iteration in Bisection 1
 a: 1.12549  b:-0.49999

 -0.09581 = (-0.57877 + 0.38715)/2.0
 sum -  nocc_ = 0.01192861
 On Iteration in Bisection 2
 a: 0.01193  b:-0.49999

 -0.33729 = (-0.57877 + -0.09581)/2.0
 sum -  nocc_ = -0.02132918
 On Iteration in Bisection 3
 a: -0.02133  b:-0.49999

 -0.21655 = (-0.33729 + -0.09581)/2.0
 sum -  nocc_ = -0.00140655
 On Iteration in Bisection 4
 a: -0.00141  b:-0.02133

 -0.15618 = (-0.21655 + -0.09581)/2.0
 sum -  nocc_ = 0.00355905
 On Iteration in Bisection 5
 a: 0.00356  b:-0.00141

 -0.18636 = (-0.21655 + -0.15618)/2.0
 sum -  nocc_ = 0.00096618
 On Iteration in Bisection 6
 a: 0.00097  b:-0.00141

 -0.20146 = (-0.21655 + -0.18636)/2.0
 sum -  nocc_ = -0.00021417
 On Iteration in Bisection 7
 a: -0.00021  b:-0.00141

 -0.19391 = (-0.20146 + -0.18636)/2.0
 sum -  nocc_ = 0.00037339
 On Iteration in Bisection 8
 a: 0.00037  b:-0.00021

 -0.19768 = (-0.20146 + -0.19391)/2.0
 sum -  nocc_ = 0.00007947
 On Iteration in Bisection 9
 a: 0.00008  b:-0.00021

 -0.19957 = (-0.20146 + -0.19768)/2.0
 sum -  nocc_ = -0.00006732
 On Iteration in Bisection 10
 a: -0.00007  b:-0.00021

 -0.19863 = (-0.19957 + -0.19768)/2.0
 sum -  nocc_ = 0.00000607
 On Iteration in Bisection 11
 a: 0.00001  b:-0.00007

 -0.19910 = (-0.19957 + -0.19863)/2.0
 sum -  nocc_ = -0.00003062
 On Iteration in Bisection 12
 a: -0.00003  b:-0.00007

 -0.19886 = (-0.19910 + -0.19863)/2.0
 sum -  nocc_ = -0.00001228
 On Iteration in Bisection 13
 a: -0.00001  b:-0.00003

 -0.19874 = (-0.19886 + -0.19863)/2.0
 sum -  nocc_ = -0.00000310
 On Iteration in Bisection 14
 a: -0.00000  b:-0.00001

 -0.19869 = (-0.19874 + -0.19863)/2.0
 sum -  nocc_ = 0.00000149
 On Iteration in Bisection 15
 a: 0.00000  b:-0.00000

 -0.19872 = (-0.19874 + -0.19869)/2.0
 sum -  nocc_ = -0.00000081
 On Iteration in Bisection 16
 a: -0.00000  b:-0.00000

 -0.19870 = (-0.19872 + -0.19869)/2.0
 sum -  nocc_ = 0.00000034
 On Iteration in Bisection 17
 a: 0.00000  b:-0.00000

 -0.19871 = (-0.19872 + -0.19870)/2.0
 sum -  nocc_ = -0.00000023
 On Iteration in Bisection 18
 a: -0.00000  b:-0.00000

 -0.19870 = (-0.19871 + -0.19870)/2.0
 sum -  nocc_ = 0.00000005
 On Iteration in Bisection 19
 a: 0.00000  b:-0.00000

 -0.19871 = (-0.19871 + -0.19870)/2.0
 sum -  nocc_ = -0.00000009
 On Iteration in Bisection 20
 a: -0.00000  b:-0.00000

 -0.19871 = (-0.19871 + -0.19870)/2.0
 sum -  nocc_ = -0.00000002
 On Iteration in Bisection 21
 a: -0.00000  b:-0.00000

 -0.19870 = (-0.19871 + -0.19870)/2.0
 sum -  nocc_ = 0.00000002
 On Iteration in Bisection 22
 a: 0.00000  b:-0.00000

 -0.19870 = (-0.19871 + -0.19870)/2.0
 sum -  nocc_ = -0.00000000
 ef = -0.19870 sum = 1.00000 

 Iter: 2  T:    20000.000  val:-0.198705  sumni 0.00000
 ne = 1.0000

 iter:3  failiter:3  energy:     -1.787965656630  total:     -1.126494145893  error:      0.009808468323
 In Bisection function HOMO = -0.575  LUMO =  3.292

 1.35818 = (-0.57549 + 3.29184)/2.0
 sum -  nocc_ = 4.51985909
 On Iteration in Bisection 0
 a: 4.51986  b:-0.49999

 0.39134 = (-0.57549 + 1.35818)/2.0
 sum -  nocc_ = 1.13156395
 On Iteration in Bisection 1
 a: 1.13156  b:-0.49999

 -0.09207 = (-0.57549 + 0.39134)/2.0
 sum -  nocc_ = 0.01219667
 On Iteration in Bisection 2
 a: 0.01220  b:-0.49999

 -0.33378 = (-0.57549 + -0.09207)/2.0
 sum -  nocc_ = -0.02124866
 On Iteration in Bisection 3
 a: -0.02125  b:-0.49999

 -0.21292 = (-0.33378 + -0.09207)/2.0
 sum -  nocc_ = -0.00135233
 On Iteration in Bisection 4
 a: -0.00135  b:-0.02125

 -0.15250 = (-0.21292 + -0.09207)/2.0
 sum -  nocc_ = 0.00366611
 On Iteration in Bisection 5
 a: 0.00367  b:-0.00135

 -0.18271 = (-0.21292 + -0.15250)/2.0
 sum -  nocc_ = 0.00103839
 On Iteration in Bisection 6
 a: 0.00104  b:-0.00135

 -0.19782 = (-0.21292 + -0.18271)/2.0
 sum -  nocc_ = -0.00015268
 On Iteration in Bisection 7
 a: -0.00015  b:-0.00135

 -0.19026 = (-0.19782 + -0.18271)/2.0
 sum -  nocc_ = 0.00043977
 On Iteration in Bisection 8
 a: 0.00044  b:-0.00015

 -0.19404 = (-0.19782 + -0.19026)/2.0
 sum -  nocc_ = 0.00014329
 On Iteration in Bisection 9
 a: 0.00014  b:-0.00015

 -0.19593 = (-0.19782 + -0.19404)/2.0
 sum -  nocc_ = -0.00000469
 On Iteration in Bisection 10
 a: -0.00000  b:-0.00015

 -0.19499 = (-0.19593 + -0.19404)/2.0
 sum -  nocc_ = 0.00006929
 On Iteration in Bisection 11
 a: 0.00007  b:-0.00000

 -0.19546 = (-0.19593 + -0.19499)/2.0
 sum -  nocc_ = 0.00003230
 On Iteration in Bisection 12
 a: 0.00003  b:-0.00000

 -0.19569 = (-0.19593 + -0.19546)/2.0
 sum -  nocc_ = 0.00001380
 On Iteration in Bisection 13
 a: 0.00001  b:-0.00000

 -0.19581 = (-0.19593 + -0.19569)/2.0
 sum -  nocc_ = 0.00000455
 On Iteration in Bisection 14
 a: 0.00000  b:-0.00000

 -0.19587 = (-0.19593 + -0.19581)/2.0
 sum -  nocc_ = -0.00000007
 On Iteration in Bisection 15
 a: -0.00000  b:-0.00000

 -0.19584 = (-0.19587 + -0.19581)/2.0
 sum -  nocc_ = 0.00000224
 On Iteration in Bisection 16
 a: 0.00000  b:-0.00000

 -0.19586 = (-0.19587 + -0.19584)/2.0
 sum -  nocc_ = 0.00000109
 On Iteration in Bisection 17
 a: 0.00000  b:-0.00000

 -0.19586 = (-0.19587 + -0.19586)/2.0
 sum -  nocc_ = 0.00000051
 On Iteration in Bisection 18
 a: 0.00000  b:-0.00000

 -0.19587 = (-0.19587 + -0.19586)/2.0
 sum -  nocc_ = 0.00000022
 On Iteration in Bisection 19
 a: 0.00000  b:-0.00000

 -0.19587 = (-0.19587 + -0.19587)/2.0
 sum -  nocc_ = 0.00000008
 On Iteration in Bisection 20
 a: 0.00000  b:-0.00000

 -0.19587 = (-0.19587 + -0.19587)/2.0
 sum -  nocc_ = 0.00000000
 ef = -0.19587 sum = 1.00000 

 Iter: 3  T:    20000.000  val:-0.195870  sumni 0.00000
 ne = 1.0000

 iter:4  failiter:4  energy:     -1.785320079893  total:     -1.123848569156  error:      0.002645576737
 In Bisection function HOMO = -0.575  LUMO =  3.293

 1.35914 = (-0.57484 + 3.29312)/2.0
 sum -  nocc_ = 4.51936648
 On Iteration in Bisection 0
 a: 4.51937  b:-0.49999

 0.39215 = (-0.57484 + 1.35914)/2.0
 sum -  nocc_ = 1.13281397
 On Iteration in Bisection 1
 a: 1.13281  b:-0.49999

 -0.09135 = (-0.57484 + 0.39215)/2.0
 sum -  nocc_ = 0.01225508
 On Iteration in Bisection 2
 a: 0.01226  b:-0.49999

 -0.33310 = (-0.57484 + -0.09135)/2.0
 sum -  nocc_ = -0.02123422
 On Iteration in Bisection 3
 a: -0.02123  b:-0.49999

 -0.21222 = (-0.33310 + -0.09135)/2.0
 sum -  nocc_ = -0.00134110
 On Iteration in Bisection 4
 a: -0.00134  b:-0.02123

 -0.15179 = (-0.21222 + -0.09135)/2.0
 sum -  nocc_ = 0.00368932
 On Iteration in Bisection 5
 a: 0.00369  b:-0.00134

 -0.18200 = (-0.21222 + -0.15179)/2.0
 sum -  nocc_ = 0.00105381
 On Iteration in Bisection 6
 a: 0.00105  b:-0.00134

 -0.19711 = (-0.21222 + -0.18200)/2.0
 sum -  nocc_ = -0.00013972
 On Iteration in Bisection 7
 a: -0.00014  b:-0.00134

 -0.18956 = (-0.19711 + -0.18200)/2.0
 sum -  nocc_ = 0.00045386
 On Iteration in Bisection 8
 a: 0.00045  b:-0.00014

 -0.19334 = (-0.19711 + -0.18956)/2.0
 sum -  nocc_ = 0.00015680
 On Iteration in Bisection 9
 a: 0.00016  b:-0.00014

 -0.19522 = (-0.19711 + -0.19334)/2.0
 sum -  nocc_ = 0.00000854
 On Iteration in Bisection 10
 a: 0.00001  b:-0.00014

 -0.19617 = (-0.19711 + -0.19522)/2.0
 sum -  nocc_ = -0.00006558
 On Iteration in Bisection 11
 a: -0.00007  b:-0.00014

 -0.19570 = (-0.19617 + -0.19522)/2.0
 sum -  nocc_ = -0.00002852
 On Iteration in Bisection 12
 a: -0.00003  b:-0.00007

 -0.19546 = (-0.19570 + -0.19522)/2.0
 sum -  nocc_ = -0.00000999
 On Iteration in Bisection 13
 a: -0.00001  b:-0.00003

 -0.19534 = (-0.19546 + -0.19522)/2.0
 sum -  nocc_ = -0.00000073
 On Iteration in Bisection 14
 a: -0.00000  b:-0.00001

 -0.19528 = (-0.19534 + -0.19522)/2.0
 sum -  nocc_ = 0.00000390
 On Iteration in Bisection 15
 a: 0.00000  b:-0.00000

 -0.19531 = (-0.19534 + -0.19528)/2.0
 sum -  nocc_ = 0.00000159
 On Iteration in Bisection 16
 a: 0.00000  b:-0.00000

 -0.19533 = (-0.19534 + -0.19531)/2.0
 sum -  nocc_ = 0.00000043
 On Iteration in Bisection 17
 a: 0.00000  b:-0.00000

 -0.19534 = (-0.19534 + -0.19533)/2.0
 sum -  nocc_ = -0.00000015
 On Iteration in Bisection 18
 a: -0.00000  b:-0.00000

 -0.19533 = (-0.19534 + -0.19533)/2.0
 sum -  nocc_ = 0.00000014
 On Iteration in Bisection 19
 a: 0.00000  b:-0.00000

 -0.19533 = (-0.19534 + -0.19533)/2.0
 sum -  nocc_ = -0.00000001
 ef = -0.19533 sum = 1.00000 

 Iter: 4  T:    20000.000  val:-0.195334  sumni 0.00000
 ne = 1.0000

 iter:5  failiter:5  energy:     -1.784797000492  total:     -1.123325489755  error:      0.000523079401
 In Bisection function HOMO = -0.575  LUMO =  3.293

 1.35932 = (-0.57472 + 3.29337)/2.0
 sum -  nocc_ = 4.51928016
 On Iteration in Bisection 0
 a: 4.51928  b:-0.49999

 0.39230 = (-0.57472 + 1.35932)/2.0
 sum -  nocc_ = 1.13305810
 On Iteration in Bisection 1
 a: 1.13306  b:-0.49999

 -0.09121 = (-0.57472 + 0.39230)/2.0
 sum -  nocc_ = 0.01226648
 On Iteration in Bisection 2
 a: 0.01227  b:-0.49999

 -0.33296 = (-0.57472 + -0.09121)/2.0
 sum -  nocc_ = -0.02123144
 On Iteration in Bisection 3
 a: -0.02123  b:-0.49999

 -0.21209 = (-0.33296 + -0.09121)/2.0
 sum -  nocc_ = -0.00133891
 On Iteration in Bisection 4
 a: -0.00134  b:-0.02123

 -0.15165 = (-0.21209 + -0.09121)/2.0
 sum -  nocc_ = 0.00369385
 On Iteration in Bisection 5
 a: 0.00369  b:-0.00134

 -0.18187 = (-0.21209 + -0.15165)/2.0
 sum -  nocc_ = 0.00105682
 On Iteration in Bisection 6
 a: 0.00106  b:-0.00134

 -0.19698 = (-0.21209 + -0.18187)/2.0
 sum -  nocc_ = -0.00013719
 On Iteration in Bisection 7
 a: -0.00014  b:-0.00134

 -0.18942 = (-0.19698 + -0.18187)/2.0
 sum -  nocc_ = 0.00045661
 On Iteration in Bisection 8
 a: 0.00046  b:-0.00014

 -0.19320 = (-0.19698 + -0.18942)/2.0
 sum -  nocc_ = 0.00015943
 On Iteration in Bisection 9
 a: 0.00016  b:-0.00014

 -0.19509 = (-0.19698 + -0.19320)/2.0
 sum -  nocc_ = 0.00001111
 On Iteration in Bisection 10
 a: 0.00001  b:-0.00014

 -0.19603 = (-0.19698 + -0.19509)/2.0
 sum -  nocc_ = -0.00006303
 On Iteration in Bisection 11
 a: -0.00006  b:-0.00014

 -0.19556 = (-0.19603 + -0.19509)/2.0
 sum -  nocc_ = -0.00002596
 On Iteration in Bisection 12
 a: -0.00003  b:-0.00006

 -0.19532 = (-0.19556 + -0.19509)/2.0
 sum -  nocc_ = -0.00000742
 On Iteration in Bisection 13
 a: -0.00001  b:-0.00003

 -0.19521 = (-0.19532 + -0.19509)/2.0
 sum -  nocc_ = 0.00000185
 On Iteration in Bisection 14
 a: 0.00000  b:-0.00001

 -0.19527 = (-0.19532 + -0.19521)/2.0
 sum -  nocc_ = -0.00000279
 On Iteration in Bisection 15
 a: -0.00000  b:-0.00001

 -0.19524 = (-0.19527 + -0.19521)/2.0
 sum -  nocc_ = -0.00000047
 On Iteration in Bisection 16
 a: -0.00000  b:-0.00000

 -0.19522 = (-0.19524 + -0.19521)/2.0
 sum -  nocc_ = 0.00000069
 On Iteration in Bisection 17
 a: 0.00000  b:-0.00000

 -0.19523 = (-0.19524 + -0.19522)/2.0
 sum -  nocc_ = 0.00000011
 On Iteration in Bisection 18
 a: 0.00000  b:-0.00000

 -0.19523 = (-0.19524 + -0.19523)/2.0
 sum -  nocc_ = -0.00000018
 On Iteration in Bisection 19
 a: -0.00000  b:-0.00000

 -0.19523 = (-0.19523 + -0.19523)/2.0
 sum -  nocc_ = -0.00000004
 On Iteration in Bisection 20
 a: -0.00000  b:-0.00000

 -0.19523 = (-0.19523 + -0.19523)/2.0
 sum -  nocc_ = 0.00000004
 On Iteration in Bisection 21
 a: 0.00000  b:-0.00000

 -0.19523 = (-0.19523 + -0.19523)/2.0
 sum -  nocc_ = -0.00000000
 ef = -0.19523 sum = 1.00000 

 Iter: 5  T:    20000.000  val:-0.195230  sumni 0.00000
 ne = 1.0000

 iter:6  failiter:6  energy:     -1.784695939728  total:     -1.123224428991  error:      0.000101060764
 In Bisection function HOMO = -0.575  LUMO =  3.293

 1.35936 = (-0.57470 + 3.29342)/2.0
 sum -  nocc_ = 4.51926413
 On Iteration in Bisection 0
 a: 4.51926  b:-0.49999

 0.39233 = (-0.57470 + 1.35936)/2.0
 sum -  nocc_ = 1.13310564
 On Iteration in Bisection 1
 a: 1.13311  b:-0.49999

 -0.09118 = (-0.57470 + 0.39233)/2.0
 sum -  nocc_ = 0.01226870
 On Iteration in Bisection 2
 a: 0.01227  b:-0.49999

 -0.33294 = (-0.57470 + -0.09118)/2.0
 sum -  nocc_ = -0.02123089
 On Iteration in Bisection 3
 a: -0.02123  b:-0.49999

 -0.21206 = (-0.33294 + -0.09118)/2.0
 sum -  nocc_ = -0.00133849
 On Iteration in Bisection 4
 a: -0.00134  b:-0.02123

 -0.15162 = (-0.21206 + -0.09118)/2.0
 sum -  nocc_ = 0.00369473
 On Iteration in Bisection 5
 a: 0.00369  b:-0.00134

 -0.18184 = (-0.21206 + -0.15162)/2.0
 sum -  nocc_ = 0.00105740
 On Iteration in Bisection 6
 a: 0.00106  b:-0.00134

 -0.19695 = (-0.21206 + -0.18184)/2.0
 sum -  nocc_ = -0.00013670
 On Iteration in Bisection 7
 a: -0.00014  b:-0.00134

 -0.18940 = (-0.19695 + -0.18184)/2.0
 sum -  nocc_ = 0.00045714
 On Iteration in Bisection 8
 a: 0.00046  b:-0.00014

 -0.19317 = (-0.19695 + -0.18940)/2.0
 sum -  nocc_ = 0.00015994
 On Iteration in Bisection 9
 a: 0.00016  b:-0.00014

 -0.19506 = (-0.19695 + -0.19317)/2.0
 sum -  nocc_ = 0.00001161
 On Iteration in Bisection 10
 a: 0.00001  b:-0.00014

 -0.19601 = (-0.19695 + -0.19506)/2.0
 sum -  nocc_ = -0.00006254
 On Iteration in Bisection 11
 a: -0.00006  b:-0.00014

 -0.19553 = (-0.19601 + -0.19506)/2.0
 sum -  nocc_ = -0.00002546
 On Iteration in Bisection 12
 a: -0.00003  b:-0.00006

 -0.19530 = (-0.19553 + -0.19506)/2.0
 sum -  nocc_ = -0.00000692
 On Iteration in Bisection 13
 a: -0.00001  b:-0.00003

 -0.19518 = (-0.19530 + -0.19506)/2.0
 sum -  nocc_ = 0.00000235
 On Iteration in Bisection 14
 a: 0.00000  b:-0.00001

 -0.19524 = (-0.19530 + -0.19518)/2.0
 sum -  nocc_ = -0.00000229
 On Iteration in Bisection 15
 a: -0.00000  b:-0.00001

 -0.19521 = (-0.19524 + -0.19518)/2.0
 sum -  nocc_ = 0.00000003
 On Iteration in Bisection 16
 a: 0.00000  b:-0.00000

 -0.19522 = (-0.19524 + -0.19521)/2.0
 sum -  nocc_ = -0.00000113
 On Iteration in Bisection 17
 a: -0.00000  b:-0.00000

 -0.19522 = (-0.19522 + -0.19521)/2.0
 sum -  nocc_ = -0.00000055
 On Iteration in Bisection 18
 a: -0.00000  b:-0.00000

 -0.19521 = (-0.19522 + -0.19521)/2.0
 sum -  nocc_ = -0.00000026
 On Iteration in Bisection 19
 a: -0.00000  b:-0.00000

 -0.19521 = (-0.19521 + -0.19521)/2.0
 sum -  nocc_ = -0.00000012
 On Iteration in Bisection 20
 a: -0.00000  b:-0.00000

 -0.19521 = (-0.19521 + -0.19521)/2.0
 sum -  nocc_ = -0.00000004
 On Iteration in Bisection 21
 a: -0.00000  b:-0.00000

 -0.19521 = (-0.19521 + -0.19521)/2.0
 sum -  nocc_ = -0.00000001
 ef = -0.19521 sum = 1.00000 

 Iter: 6  T:    20000.000  val:-0.195210  sumni 0.00000
 ne = 1.0000

 iter:7  failiter:7  energy:     -1.784676333201  total:     -1.123204822464  error:      0.000019606527
 In Bisection function HOMO = -0.575  LUMO =  3.293

 1.35937 = (-0.57469 + 3.29343)/2.0
 sum -  nocc_ = 4.51926110
 On Iteration in Bisection 0
 a: 4.51926  b:-0.49999

 0.39234 = (-0.57469 + 1.35937)/2.0
 sum -  nocc_ = 1.13311492
 On Iteration in Bisection 1
 a: 1.13311  b:-0.49999

 -0.09118 = (-0.57469 + 0.39234)/2.0
 sum -  nocc_ = 0.01226913
 On Iteration in Bisection 2
 a: 0.01227  b:-0.49999

 -0.33293 = (-0.57469 + -0.09118)/2.0
 sum -  nocc_ = -0.02123079
 On Iteration in Bisection 3
 a: -0.02123  b:-0.49999

 -0.21206 = (-0.33293 + -0.09118)/2.0
 sum -  nocc_ = -0.00133841
 On Iteration in Bisection 4
 a: -0.00134  b:-0.02123

 -0.15162 = (-0.21206 + -0.09118)/2.0
 sum -  nocc_ = 0.00369490
 On Iteration in Bisection 5
 a: 0.00369  b:-0.00134

 -0.18184 = (-0.21206 + -0.15162)/2.0
 sum -  nocc_ = 0.00105752
 On Iteration in Bisection 6
 a: 0.00106  b:-0.00134

 -0.19695 = (-0.21206 + -0.18184)/2.0
 sum -  nocc_ = -0.00013660
 On Iteration in Bisection 7
 a: -0.00014  b:-0.00134

 -0.18939 = (-0.19695 + -0.18184)/2.0
 sum -  nocc_ = 0.00045725
 On Iteration in Bisection 8
 a: 0.00046  b:-0.00014

 -0.19317 = (-0.19695 + -0.18939)/2.0
 sum -  nocc_ = 0.00016004
 On Iteration in Bisection 9
 a: 0.00016  b:-0.00014

 -0.19506 = (-0.19695 + -0.19317)/2.0
 sum -  nocc_ = 0.00001171
 On Iteration in Bisection 10
 a: 0.00001  b:-0.00014

 -0.19600 = (-0.19695 + -0.19506)/2.0
 sum -  nocc_ = -0.00006244
 On Iteration in Bisection 11
 a: -0.00006  b:-0.00014

 -0.19553 = (-0.19600 + -0.19506)/2.0
 sum -  nocc_ = -0.00002536
 On Iteration in Bisection 12
 a: -0.00003  b:-0.00006

 -0.19529 = (-0.19553 + -0.19506)/2.0
 sum -  nocc_ = -0.00000683
 On Iteration in Bisection 13
 a: -0.00001  b:-0.00003

 -0.19518 = (-0.19529 + -0.19506)/2.0
 sum -  nocc_ = 0.00000244
 On Iteration in Bisection 14
 a: 0.00000  b:-0.00001

 -0.19523 = (-0.19529 + -0.19518)/2.0
 sum -  nocc_ = -0.00000219
 On Iteration in Bisection 15
 a: -0.00000  b:-0.00001

 -0.19520 = (-0.19523 + -0.19518)/2.0
 sum -  nocc_ = 0.00000013
 On Iteration in Bisection 16
 a: 0.00000  b:-0.00000

 -0.19522 = (-0.19523 + -0.19520)/2.0
 sum -  nocc_ = -0.00000103
 On Iteration in Bisection 17
 a: -0.00000  b:-0.00000

 -0.19521 = (-0.19522 + -0.19520)/2.0
 sum -  nocc_ = -0.00000045
 On Iteration in Bisection 18
 a: -0.00000  b:-0.00000

 -0.19521 = (-0.19521 + -0.19520)/2.0
 sum -  nocc_ = -0.00000016
 On Iteration in Bisection 19
 a: -0.00000  b:-0.00000

 -0.19521 = (-0.19521 + -0.19520)/2.0
 sum -  nocc_ = -0.00000002
 On Iteration in Bisection 20
 a: -0.00000  b:-0.00000

 -0.19521 = (-0.19521 + -0.19520)/2.0
 sum -  nocc_ = 0.00000005
 On Iteration in Bisection 21
 a: 0.00000  b:-0.00000

 -0.19521 = (-0.19521 + -0.19521)/2.0
 sum -  nocc_ = 0.00000002
 On Iteration in Bisection 22
 a: 0.00000  b:-0.00000

 -0.19521 = (-0.19521 + -0.19521)/2.0
 sum -  nocc_ = -0.00000000
 ef = -0.19521 sum = 1.00000 

 Iter: 7  T:    20000.000  val:-0.195206  sumni 0.00000
 ne = 1.0000

 iter:8  failiter:8  energy:     -1.784672531579  total:     -1.123201020841  error:      0.000003801622
 In Bisection function HOMO = -0.575  LUMO =  3.293

 1.35937 = (-0.57469 + 3.29343)/2.0
 sum -  nocc_ = 4.51926051
 On Iteration in Bisection 0
 a: 4.51926  b:-0.49999

 0.39234 = (-0.57469 + 1.35937)/2.0
 sum -  nocc_ = 1.13311673
 On Iteration in Bisection 1
 a: 1.13312  b:-0.49999

 -0.09118 = (-0.57469 + 0.39234)/2.0
 sum -  nocc_ = 0.01226921
 On Iteration in Bisection 2
 a: 0.01227  b:-0.49999

 -0.33293 = (-0.57469 + -0.09118)/2.0
 sum -  nocc_ = -0.02123077
 On Iteration in Bisection 3
 a: -0.02123  b:-0.49999

 -0.21205 = (-0.33293 + -0.09118)/2.0
 sum -  nocc_ = -0.00133839
 On Iteration in Bisection 4
 a: -0.00134  b:-0.02123

 -0.15162 = (-0.21205 + -0.09118)/2.0
 sum -  nocc_ = 0.00369494
 On Iteration in Bisection 5
 a: 0.00369  b:-0.00134

 -0.18184 = (-0.21205 + -0.15162)/2.0
 sum -  nocc_ = 0.00105754
 On Iteration in Bisection 6
 a: 0.00106  b:-0.00134

 -0.19694 = (-0.21205 + -0.18184)/2.0
 sum -  nocc_ = -0.00013659
 On Iteration in Bisection 7
 a: -0.00014  b:-0.00134

 -0.18939 = (-0.19694 + -0.18184)/2.0
 sum -  nocc_ = 0.00045727
 On Iteration in Bisection 8
 a: 0.00046  b:-0.00014

 -0.19317 = (-0.19694 + -0.18939)/2.0
 sum -  nocc_ = 0.00016006
 On Iteration in Bisection 9
 a: 0.00016  b:-0.00014

 -0.19506 = (-0.19694 + -0.19317)/2.0
 sum -  nocc_ = 0.00001173
 On Iteration in Bisection 10
 a: 0.00001  b:-0.00014

 -0.19600 = (-0.19694 + -0.19506)/2.0
 sum -  nocc_ = -0.00006242
 On Iteration in Bisection 11
 a: -0.00006  b:-0.00014

 -0.19553 = (-0.19600 + -0.19506)/2.0
 sum -  nocc_ = -0.00002534
 On Iteration in Bisection 12
 a: -0.00003  b:-0.00006

 -0.19529 = (-0.19553 + -0.19506)/2.0
 sum -  nocc_ = -0.00000681
 On Iteration in Bisection 13
 a: -0.00001  b:-0.00003

 -0.19517 = (-0.19529 + -0.19506)/2.0
 sum -  nocc_ = 0.00000246
 On Iteration in Bisection 14
 a: 0.00000  b:-0.00001

 -0.19523 = (-0.19529 + -0.19517)/2.0
 sum -  nocc_ = -0.00000217
 On Iteration in Bisection 15
 a: -0.00000  b:-0.00001

 -0.19520 = (-0.19523 + -0.19517)/2.0
 sum -  nocc_ = 0.00000015
 On Iteration in Bisection 16
 a: 0.00000  b:-0.00000

 -0.19522 = (-0.19523 + -0.19520)/2.0
 sum -  nocc_ = -0.00000101
 On Iteration in Bisection 17
 a: -0.00000  b:-0.00000

 -0.19521 = (-0.19522 + -0.19520)/2.0
 sum -  nocc_ = -0.00000043
 On Iteration in Bisection 18
 a: -0.00000  b:-0.00000

 -0.19521 = (-0.19521 + -0.19520)/2.0
 sum -  nocc_ = -0.00000014
 On Iteration in Bisection 19
 a: -0.00000  b:-0.00000

 -0.19521 = (-0.19521 + -0.19520)/2.0
 sum -  nocc_ = 0.00000000
 ef = -0.19521 sum = 1.00000 

 Iter: 8  T:    20000.000  val:-0.195206  sumni 0.00000
 ne = 1.0000

 iter:9  failiter:9  energy:     -1.784671783112  total:     -1.123200272374  error:      0.000000748467
 In Bisection function HOMO = -0.575  LUMO =  3.293

 1.35937 = (-0.57469 + 3.29343)/2.0
 sum -  nocc_ = 4.51926040
 On Iteration in Bisection 0
 a: 4.51926  b:-0.49999

 0.39234 = (-0.57469 + 1.35937)/2.0
 sum -  nocc_ = 1.13311709
 On Iteration in Bisection 1
 a: 1.13312  b:-0.49999

 -0.09118 = (-0.57469 + 0.39234)/2.0
 sum -  nocc_ = 0.01226923
 On Iteration in Bisection 2
 a: 0.01227  b:-0.49999

 -0.33293 = (-0.57469 + -0.09118)/2.0
 sum -  nocc_ = -0.02123076
 On Iteration in Bisection 3
 a: -0.02123  b:-0.49999

 -0.21205 = (-0.33293 + -0.09118)/2.0
 sum -  nocc_ = -0.00133839
 On Iteration in Bisection 4
 a: -0.00134  b:-0.02123

 -0.15162 = (-0.21205 + -0.09118)/2.0
 sum -  nocc_ = 0.00369494
 On Iteration in Bisection 5
 a: 0.00369  b:-0.00134

 -0.18183 = (-0.21205 + -0.15162)/2.0
 sum -  nocc_ = 0.00105754
 On Iteration in Bisection 6
 a: 0.00106  b:-0.00134

 -0.19694 = (-0.21205 + -0.18183)/2.0
 sum -  nocc_ = -0.00013658
 On Iteration in Bisection 7
 a: -0.00014  b:-0.00134

 -0.18939 = (-0.19694 + -0.18183)/2.0
 sum -  nocc_ = 0.00045727
 On Iteration in Bisection 8
 a: 0.00046  b:-0.00014

 -0.19317 = (-0.19694 + -0.18939)/2.0
 sum -  nocc_ = 0.00016006
 On Iteration in Bisection 9
 a: 0.00016  b:-0.00014

 -0.19506 = (-0.19694 + -0.19317)/2.0
 sum -  nocc_ = 0.00001174
 On Iteration in Bisection 10
 a: 0.00001  b:-0.00014

 -0.19600 = (-0.19694 + -0.19506)/2.0
 sum -  nocc_ = -0.00006242
 On Iteration in Bisection 11
 a: -0.00006  b:-0.00014

 -0.19553 = (-0.19600 + -0.19506)/2.0
 sum -  nocc_ = -0.00002534
 On Iteration in Bisection 12
 a: -0.00003  b:-0.00006

 -0.19529 = (-0.19553 + -0.19506)/2.0
 sum -  nocc_ = -0.00000680
 On Iteration in Bisection 13
 a: -0.00001  b:-0.00003

 -0.19517 = (-0.19529 + -0.19506)/2.0
 sum -  nocc_ = 0.00000247
 On Iteration in Bisection 14
 a: 0.00000  b:-0.00001

 -0.19523 = (-0.19529 + -0.19517)/2.0
 sum -  nocc_ = -0.00000217
 On Iteration in Bisection 15
 a: -0.00000  b:-0.00001

 -0.19520 = (-0.19523 + -0.19517)/2.0
 sum -  nocc_ = 0.00000015
 On Iteration in Bisection 16
 a: 0.00000  b:-0.00000

 -0.19522 = (-0.19523 + -0.19520)/2.0
 sum -  nocc_ = -0.00000101
 On Iteration in Bisection 17
 a: -0.00000  b:-0.00000

 -0.19521 = (-0.19522 + -0.19520)/2.0
 sum -  nocc_ = -0.00000043
 On Iteration in Bisection 18
 a: -0.00000  b:-0.00000

 -0.19521 = (-0.19521 + -0.19520)/2.0
 sum -  nocc_ = -0.00000014
 On Iteration in Bisection 19
 a: -0.00000  b:-0.00000

 -0.19521 = (-0.19521 + -0.19520)/2.0
 sum -  nocc_ = 0.00000000
 ef = -0.19521 sum = 1.00000 

 Iter: 9  T:    20000.000  val:-0.195205  sumni 0.00000
 ne = 1.0000

 iter:10  failiter:10  energy:     -1.784671640961  total:     -1.123200130224  error:      0.000000142151
 In Bisection function HOMO = -0.575  LUMO =  3.293

 1.35937 = (-0.57469 + 3.29343)/2.0
 sum -  nocc_ = 4.51926037
 On Iteration in Bisection 0
 a: 4.51926  b:-0.49999

 0.39234 = (-0.57469 + 1.35937)/2.0
 sum -  nocc_ = 1.13311716
 On Iteration in Bisection 1
 a: 1.13312  b:-0.49999

 -0.09118 = (-0.57469 + 0.39234)/2.0
 sum -  nocc_ = 0.01226923
 On Iteration in Bisection 2
 a: 0.01227  b:-0.49999

 -0.33293 = (-0.57469 + -0.09118)/2.0
 sum -  nocc_ = -0.02123076
 On Iteration in Bisection 3
 a: -0.02123  b:-0.49999

 -0.21205 = (-0.33293 + -0.09118)/2.0
 sum -  nocc_ = -0.00133839
 On Iteration in Bisection 4
 a: -0.00134  b:-0.02123

 -0.15162 = (-0.21205 + -0.09118)/2.0
 sum -  nocc_ = 0.00369494
 On Iteration in Bisection 5
 a: 0.00369  b:-0.00134

 -0.18183 = (-0.21205 + -0.15162)/2.0
 sum -  nocc_ = 0.00105755
 On Iteration in Bisection 6
 a: 0.00106  b:-0.00134

 -0.19694 = (-0.21205 + -0.18183)/2.0
 sum -  nocc_ = -0.00013658
 On Iteration in Bisection 7
 a: -0.00014  b:-0.00134

 -0.18939 = (-0.19694 + -0.18183)/2.0
 sum -  nocc_ = 0.00045727
 On Iteration in Bisection 8
 a: 0.00046  b:-0.00014

 -0.19317 = (-0.19694 + -0.18939)/2.0
 sum -  nocc_ = 0.00016006
 On Iteration in Bisection 9
 a: 0.00016  b:-0.00014

 -0.19506 = (-0.19694 + -0.19317)/2.0
 sum -  nocc_ = 0.00001174
 On Iteration in Bisection 10
 a: 0.00001  b:-0.00014

 -0.19600 = (-0.19694 + -0.19506)/2.0
 sum -  nocc_ = -0.00006242
 On Iteration in Bisection 11
 a: -0.00006  b:-0.00014

 -0.19553 = (-0.19600 + -0.19506)/2.0
 sum -  nocc_ = -0.00002534
 On Iteration in Bisection 12
 a: -0.00003  b:-0.00006

 -0.19529 = (-0.19553 + -0.19506)/2.0
 sum -  nocc_ = -0.00000680
 On Iteration in Bisection 13
 a: -0.00001  b:-0.00003

 -0.19517 = (-0.19529 + -0.19506)/2.0
 sum -  nocc_ = 0.00000247
 On Iteration in Bisection 14
 a: 0.00000  b:-0.00001

 -0.19523 = (-0.19529 + -0.19517)/2.0
 sum -  nocc_ = -0.00000217
 On Iteration in Bisection 15
 a: -0.00000  b:-0.00001

 -0.19520 = (-0.19523 + -0.19517)/2.0
 sum -  nocc_ = 0.00000015
 On Iteration in Bisection 16
 a: 0.00000  b:-0.00000

 -0.19522 = (-0.19523 + -0.19520)/2.0
 sum -  nocc_ = -0.00000101
 On Iteration in Bisection 17
 a: -0.00000  b:-0.00000

 -0.19521 = (-0.19522 + -0.19520)/2.0
 sum -  nocc_ = -0.00000043
 On Iteration in Bisection 18
 a: -0.00000  b:-0.00000

 -0.19521 = (-0.19521 + -0.19520)/2.0
 sum -  nocc_ = -0.00000014
 On Iteration in Bisection 19
 a: -0.00000  b:-0.00000

 -0.19521 = (-0.19521 + -0.19520)/2.0
 sum -  nocc_ = 0.00000001
 ef = -0.19521 sum = 1.00000 

 Iter: 10  T:    20000.000  val:-0.195205  sumni 0.00000
 ne = 1.0000

 iter:11  failiter:11  energy:     -1.784671610635  total:     -1.123200099898  error:      0.000000030326
 In Bisection function HOMO = -0.575  LUMO =  3.293

 1.35937 = (-0.57469 + 3.29343)/2.0
 sum -  nocc_ = 4.51926037
 On Iteration in Bisection 0
 a: 4.51926  b:-0.49999

 0.39234 = (-0.57469 + 1.35937)/2.0
 sum -  nocc_ = 1.13311717
 On Iteration in Bisection 1
 a: 1.13312  b:-0.49999

 -0.09118 = (-0.57469 + 0.39234)/2.0
 sum -  nocc_ = 0.01226923
 On Iteration in Bisection 2
 a: 0.01227  b:-0.49999

 -0.33293 = (-0.57469 + -0.09118)/2.0
 sum -  nocc_ = -0.02123076
 On Iteration in Bisection 3
 a: -0.02123  b:-0.49999

 -0.21205 = (-0.33293 + -0.09118)/2.0
 sum -  nocc_ = -0.00133839
 On Iteration in Bisection 4
 a: -0.00134  b:-0.02123

 -0.15162 = (-0.21205 + -0.09118)/2.0
 sum -  nocc_ = 0.00369494
 On Iteration in Bisection 5
 a: 0.00369  b:-0.00134

 -0.18183 = (-0.21205 + -0.15162)/2.0
 sum -  nocc_ = 0.00105755
 On Iteration in Bisection 6
 a: 0.00106  b:-0.00134

 -0.19694 = (-0.21205 + -0.18183)/2.0
 sum -  nocc_ = -0.00013658
 On Iteration in Bisection 7
 a: -0.00014  b:-0.00134

 -0.18939 = (-0.19694 + -0.18183)/2.0
 sum -  nocc_ = 0.00045727
 On Iteration in Bisection 8
 a: 0.00046  b:-0.00014

 -0.19317 = (-0.19694 + -0.18939)/2.0
 sum -  nocc_ = 0.00016006
 On Iteration in Bisection 9
 a: 0.00016  b:-0.00014

 -0.19506 = (-0.19694 + -0.19317)/2.0
 sum -  nocc_ = 0.00001174
 On Iteration in Bisection 10
 a: 0.00001  b:-0.00014

 -0.19600 = (-0.19694 + -0.19506)/2.0
 sum -  nocc_ = -0.00006242
 On Iteration in Bisection 11
 a: -0.00006  b:-0.00014

 -0.19553 = (-0.19600 + -0.19506)/2.0
 sum -  nocc_ = -0.00002534
 On Iteration in Bisection 12
 a: -0.00003  b:-0.00006

 -0.19529 = (-0.19553 + -0.19506)/2.0
 sum -  nocc_ = -0.00000680
 On Iteration in Bisection 13
 a: -0.00001  b:-0.00003

 -0.19517 = (-0.19529 + -0.19506)/2.0
 sum -  nocc_ = 0.00000247
 On Iteration in Bisection 14
 a: 0.00000  b:-0.00001

 -0.19523 = (-0.19529 + -0.19517)/2.0
 sum -  nocc_ = -0.00000217
 On Iteration in Bisection 15
 a: -0.00000  b:-0.00001

 -0.19520 = (-0.19523 + -0.19517)/2.0
 sum -  nocc_ = 0.00000015
 On Iteration in Bisection 16
 a: 0.00000  b:-0.00000

 -0.19522 = (-0.19523 + -0.19520)/2.0
 sum -  nocc_ = -0.00000101
 On Iteration in Bisection 17
 a: -0.00000  b:-0.00000

 -0.19521 = (-0.19522 + -0.19520)/2.0
 sum -  nocc_ = -0.00000043
 On Iteration in Bisection 18
 a: -0.00000  b:-0.00000

 -0.19521 = (-0.19521 + -0.19520)/2.0
 sum -  nocc_ = -0.00000014
 On Iteration in Bisection 19
 a: -0.00000  b:-0.00000

 -0.19521 = (-0.19521 + -0.19520)/2.0
 sum -  nocc_ = 0.00000001
 ef = -0.19521 sum = 1.00000 

 Iter: 11  T:    20000.000  val:-0.195205  sumni 0.00000
 ne = 1.0000

 iter:12  failiter:12  energy:     -1.784671604782  total:     -1.123200094045  error:      0.000000005853
 In Bisection function HOMO = -0.575  LUMO =  3.293

 1.35937 = (-0.57469 + 3.29343)/2.0
 sum -  nocc_ = 4.51926037
 On Iteration in Bisection 0
 a: 4.51926  b:-0.49999

 0.39234 = (-0.57469 + 1.35937)/2.0
 sum -  nocc_ = 1.13311718
 On Iteration in Bisection 1
 a: 1.13312  b:-0.49999

 -0.09118 = (-0.57469 + 0.39234)/2.0
 sum -  nocc_ = 0.01226923
 On Iteration in Bisection 2
 a: 0.01227  b:-0.49999

 -0.33293 = (-0.57469 + -0.09118)/2.0
 sum -  nocc_ = -0.02123076
 On Iteration in Bisection 3
 a: -0.02123  b:-0.49999

 -0.21205 = (-0.33293 + -0.09118)/2.0
 sum -  nocc_ = -0.00133839
 On Iteration in Bisection 4
 a: -0.00134  b:-0.02123

 -0.15162 = (-0.21205 + -0.09118)/2.0
 sum -  nocc_ = 0.00369494
 On Iteration in Bisection 5
 a: 0.00369  b:-0.00134

 -0.18183 = (-0.21205 + -0.15162)/2.0
 sum -  nocc_ = 0.00105755
 On Iteration in Bisection 6
 a: 0.00106  b:-0.00134

 -0.19694 = (-0.21205 + -0.18183)/2.0
 sum -  nocc_ = -0.00013658
 On Iteration in Bisection 7
 a: -0.00014  b:-0.00134

 -0.18939 = (-0.19694 + -0.18183)/2.0
 sum -  nocc_ = 0.00045727
 On Iteration in Bisection 8
 a: 0.00046  b:-0.00014

 -0.19317 = (-0.19694 + -0.18939)/2.0
 sum -  nocc_ = 0.00016006
 On Iteration in Bisection 9
 a: 0.00016  b:-0.00014

 -0.19506 = (-0.19694 + -0.19317)/2.0
 sum -  nocc_ = 0.00001174
 On Iteration in Bisection 10
 a: 0.00001  b:-0.00014

 -0.19600 = (-0.19694 + -0.19506)/2.0
 sum -  nocc_ = -0.00006242
 On Iteration in Bisection 11
 a: -0.00006  b:-0.00014

 -0.19553 = (-0.19600 + -0.19506)/2.0
 sum -  nocc_ = -0.00002534
 On Iteration in Bisection 12
 a: -0.00003  b:-0.00006

 -0.19529 = (-0.19553 + -0.19506)/2.0
 sum -  nocc_ = -0.00000680
 On Iteration in Bisection 13
 a: -0.00001  b:-0.00003

 -0.19517 = (-0.19529 + -0.19506)/2.0
 sum -  nocc_ = 0.00000247
 On Iteration in Bisection 14
 a: 0.00000  b:-0.00001

 -0.19523 = (-0.19529 + -0.19517)/2.0
 sum -  nocc_ = -0.00000217
 On Iteration in Bisection 15
 a: -0.00000  b:-0.00001

 -0.19520 = (-0.19523 + -0.19517)/2.0
 sum -  nocc_ = 0.00000015
 On Iteration in Bisection 16
 a: 0.00000  b:-0.00000

 -0.19522 = (-0.19523 + -0.19520)/2.0
 sum -  nocc_ = -0.00000101
 On Iteration in Bisection 17
 a: -0.00000  b:-0.00000

 -0.19521 = (-0.19522 + -0.19520)/2.0
 sum -  nocc_ = -0.00000043
 On Iteration in Bisection 18
 a: -0.00000  b:-0.00000

 -0.19521 = (-0.19521 + -0.19520)/2.0
 sum -  nocc_ = -0.00000014
 On Iteration in Bisection 19
 a: -0.00000  b:-0.00000

 -0.19521 = (-0.19521 + -0.19520)/2.0
 sum -  nocc_ = 0.00000001
 ef = -0.19521 sum = 1.00000 

 Iter: 12  T:    20000.000  val:-0.195205  sumni 0.00000
 ne = 1.0000

 iter:13  failiter:13  energy:     -1.784671603656  total:     -1.123200092918  error:      0.000000001127
 In Bisection function HOMO = -0.575  LUMO =  3.293

 1.35937 = (-0.57469 + 3.29343)/2.0
 sum -  nocc_ = 4.51926037
 On Iteration in Bisection 0
 a: 4.51926  b:-0.49999

 0.39234 = (-0.57469 + 1.35937)/2.0
 sum -  nocc_ = 1.13311718
 On Iteration in Bisection 1
 a: 1.13312  b:-0.49999

 -0.09118 = (-0.57469 + 0.39234)/2.0
 sum -  nocc_ = 0.01226923
 On Iteration in Bisection 2
 a: 0.01227  b:-0.49999

 -0.33293 = (-0.57469 + -0.09118)/2.0
 sum -  nocc_ = -0.02123076
 On Iteration in Bisection 3
 a: -0.02123  b:-0.49999

 -0.21205 = (-0.33293 + -0.09118)/2.0
 sum -  nocc_ = -0.00133839
 On Iteration in Bisection 4
 a: -0.00134  b:-0.02123

 -0.15162 = (-0.21205 + -0.09118)/2.0
 sum -  nocc_ = 0.00369494
 On Iteration in Bisection 5
 a: 0.00369  b:-0.00134

 -0.18183 = (-0.21205 + -0.15162)/2.0
 sum -  nocc_ = 0.00105755
 On Iteration in Bisection 6
 a: 0.00106  b:-0.00134

 -0.19694 = (-0.21205 + -0.18183)/2.0
 sum -  nocc_ = -0.00013658
 On Iteration in Bisection 7
 a: -0.00014  b:-0.00134

 -0.18939 = (-0.19694 + -0.18183)/2.0
 sum -  nocc_ = 0.00045727
 On Iteration in Bisection 8
 a: 0.00046  b:-0.00014

 -0.19317 = (-0.19694 + -0.18939)/2.0
 sum -  nocc_ = 0.00016006
 On Iteration in Bisection 9
 a: 0.00016  b:-0.00014

 -0.19506 = (-0.19694 + -0.19317)/2.0
 sum -  nocc_ = 0.00001174
 On Iteration in Bisection 10
 a: 0.00001  b:-0.00014

 -0.19600 = (-0.19694 + -0.19506)/2.0
 sum -  nocc_ = -0.00006242
 On Iteration in Bisection 11
 a: -0.00006  b:-0.00014

 -0.19553 = (-0.19600 + -0.19506)/2.0
 sum -  nocc_ = -0.00002534
 On Iteration in Bisection 12
 a: -0.00003  b:-0.00006

 -0.19529 = (-0.19553 + -0.19506)/2.0
 sum -  nocc_ = -0.00000680
 On Iteration in Bisection 13
 a: -0.00001  b:-0.00003

 -0.19517 = (-0.19529 + -0.19506)/2.0
 sum -  nocc_ = 0.00000247
 On Iteration in Bisection 14
 a: 0.00000  b:-0.00001

 -0.19523 = (-0.19529 + -0.19517)/2.0
 sum -  nocc_ = -0.00000217
 On Iteration in Bisection 15
 a: -0.00000  b:-0.00001

 -0.19520 = (-0.19523 + -0.19517)/2.0
 sum -  nocc_ = 0.00000015
 On Iteration in Bisection 16
 a: 0.00000  b:-0.00000

 -0.19522 = (-0.19523 + -0.19520)/2.0
 sum -  nocc_ = -0.00000101
 On Iteration in Bisection 17
 a: -0.00000  b:-0.00000

 -0.19521 = (-0.19522 + -0.19520)/2.0
 sum -  nocc_ = -0.00000043
 On Iteration in Bisection 18
 a: -0.00000  b:-0.00000

 -0.19521 = (-0.19521 + -0.19520)/2.0
 sum -  nocc_ = -0.00000014
 On Iteration in Bisection 19
 a: -0.00000  b:-0.00000

 -0.19521 = (-0.19521 + -0.19520)/2.0
 sum -  nocc_ = 0.00000001
 ef = -0.19521 sum = 1.00000 

 Iter: 13  T:    20000.000  val:-0.195205  sumni 0.00000
 ne = 1.0000

 iter:14  failiter:14  energy:     -1.784671603438  total:     -1.123200092701  error:      0.000000000217
 In Bisection function HOMO = -0.575  LUMO =  3.293

 1.35937 = (-0.57469 + 3.29343)/2.0
 sum -  nocc_ = 4.51926037
 On Iteration in Bisection 0
 a: 4.51926  b:-0.49999

 0.39234 = (-0.57469 + 1.35937)/2.0
 sum -  nocc_ = 1.13311718
 On Iteration in Bisection 1
 a: 1.13312  b:-0.49999

 -0.09118 = (-0.57469 + 0.39234)/2.0
 sum -  nocc_ = 0.01226923
 On Iteration in Bisection 2
 a: 0.01227  b:-0.49999

 -0.33293 = (-0.57469 + -0.09118)/2.0
 sum -  nocc_ = -0.02123076
 On Iteration in Bisection 3
 a: -0.02123  b:-0.49999

 -0.21205 = (-0.33293 + -0.09118)/2.0
 sum -  nocc_ = -0.00133839
 On Iteration in Bisection 4
 a: -0.00134  b:-0.02123

 -0.15162 = (-0.21205 + -0.09118)/2.0
 sum -  nocc_ = 0.00369494
 On Iteration in Bisection 5
 a: 0.00369  b:-0.00134

 -0.18183 = (-0.21205 + -0.15162)/2.0
 sum -  nocc_ = 0.00105755
 On Iteration in Bisection 6
 a: 0.00106  b:-0.00134

 -0.19694 = (-0.21205 + -0.18183)/2.0
 sum -  nocc_ = -0.00013658
 On Iteration in Bisection 7
 a: -0.00014  b:-0.00134

 -0.18939 = (-0.19694 + -0.18183)/2.0
 sum -  nocc_ = 0.00045727
 On Iteration in Bisection 8
 a: 0.00046  b:-0.00014

 -0.19317 = (-0.19694 + -0.18939)/2.0
 sum -  nocc_ = 0.00016006
 On Iteration in Bisection 9
 a: 0.00016  b:-0.00014

 -0.19506 = (-0.19694 + -0.19317)/2.0
 sum -  nocc_ = 0.00001174
 On Iteration in Bisection 10
 a: 0.00001  b:-0.00014

 -0.19600 = (-0.19694 + -0.19506)/2.0
 sum -  nocc_ = -0.00006242
 On Iteration in Bisection 11
 a: -0.00006  b:-0.00014

 -0.19553 = (-0.19600 + -0.19506)/2.0
 sum -  nocc_ = -0.00002534
 On Iteration in Bisection 12
 a: -0.00003  b:-0.00006

 -0.19529 = (-0.19553 + -0.19506)/2.0
 sum -  nocc_ = -0.00000680
 On Iteration in Bisection 13
 a: -0.00001  b:-0.00003

 -0.19517 = (-0.19529 + -0.19506)/2.0
 sum -  nocc_ = 0.00000247
 On Iteration in Bisection 14
 a: 0.00000  b:-0.00001

 -0.19523 = (-0.19529 + -0.19517)/2.0
 sum -  nocc_ = -0.00000217
 On Iteration in Bisection 15
 a: -0.00000  b:-0.00001

 -0.19520 = (-0.19523 + -0.19517)/2.0
 sum -  nocc_ = 0.00000015
 On Iteration in Bisection 16
 a: 0.00000  b:-0.00000

 -0.19522 = (-0.19523 + -0.19520)/2.0
 sum -  nocc_ = -0.00000101
 On Iteration in Bisection 17
 a: -0.00000  b:-0.00000

 -0.19521 = (-0.19522 + -0.19520)/2.0
 sum -  nocc_ = -0.00000043
 On Iteration in Bisection 18
 a: -0.00000  b:-0.00000

 -0.19521 = (-0.19521 + -0.19520)/2.0
 sum -  nocc_ = -0.00000014
 On Iteration in Bisection 19
 a: -0.00000  b:-0.00000

 -0.19521 = (-0.19521 + -0.19520)/2.0
 sum -  nocc_ = 0.00000001
 ef = -0.19521 sum = 1.00000 

 Iter: 14  T:    20000.000  val:-0.195205  sumni 0.00000
 ne = 1.0000

 iter:15  failiter:15  energy:     -1.784671603396  total:     -1.123200092659  error:      0.000000000042
 In Bisection function HOMO = -0.575  LUMO =  3.293

 1.35937 = (-0.57469 + 3.29343)/2.0
 sum -  nocc_ = 4.51926037
 On Iteration in Bisection 0
 a: 4.51926  b:-0.49999

 0.39234 = (-0.57469 + 1.35937)/2.0
 sum -  nocc_ = 1.13311718
 On Iteration in Bisection 1
 a: 1.13312  b:-0.49999

 -0.09118 = (-0.57469 + 0.39234)/2.0
 sum -  nocc_ = 0.01226923
 On Iteration in Bisection 2
 a: 0.01227  b:-0.49999

 -0.33293 = (-0.57469 + -0.09118)/2.0
 sum -  nocc_ = -0.02123076
 On Iteration in Bisection 3
 a: -0.02123  b:-0.49999

 -0.21205 = (-0.33293 + -0.09118)/2.0
 sum -  nocc_ = -0.00133839
 On Iteration in Bisection 4
 a: -0.00134  b:-0.02123

 -0.15162 = (-0.21205 + -0.09118)/2.0
 sum -  nocc_ = 0.00369494
 On Iteration in Bisection 5
 a: 0.00369  b:-0.00134

 -0.18183 = (-0.21205 + -0.15162)/2.0
 sum -  nocc_ = 0.00105755
 On Iteration in Bisection 6
 a: 0.00106  b:-0.00134

 -0.19694 = (-0.21205 + -0.18183)/2.0
 sum -  nocc_ = -0.00013658
 On Iteration in Bisection 7
 a: -0.00014  b:-0.00134

 -0.18939 = (-0.19694 + -0.18183)/2.0
 sum -  nocc_ = 0.00045727
 On Iteration in Bisection 8
 a: 0.00046  b:-0.00014

 -0.19317 = (-0.19694 + -0.18939)/2.0
 sum -  nocc_ = 0.00016006
 On Iteration in Bisection 9
 a: 0.00016  b:-0.00014

 -0.19506 = (-0.19694 + -0.19317)/2.0
 sum -  nocc_ = 0.00001174
 On Iteration in Bisection 10
 a: 0.00001  b:-0.00014

 -0.19600 = (-0.19694 + -0.19506)/2.0
 sum -  nocc_ = -0.00006242
 On Iteration in Bisection 11
 a: -0.00006  b:-0.00014

 -0.19553 = (-0.19600 + -0.19506)/2.0
 sum -  nocc_ = -0.00002534
 On Iteration in Bisection 12
 a: -0.00003  b:-0.00006

 -0.19529 = (-0.19553 + -0.19506)/2.0
 sum -  nocc_ = -0.00000680
 On Iteration in Bisection 13
 a: -0.00001  b:-0.00003

 -0.19517 = (-0.19529 + -0.19506)/2.0
 sum -  nocc_ = 0.00000247
 On Iteration in Bisection 14
 a: 0.00000  b:-0.00001

 -0.19523 = (-0.19529 + -0.19517)/2.0
 sum -  nocc_ = -0.00000217
 On Iteration in Bisection 15
 a: -0.00000  b:-0.00001

 -0.19520 = (-0.19523 + -0.19517)/2.0
 sum -  nocc_ = 0.00000015
 On Iteration in Bisection 16
 a: 0.00000  b:-0.00000

 -0.19522 = (-0.19523 + -0.19520)/2.0
 sum -  nocc_ = -0.00000101
 On Iteration in Bisection 17
 a: -0.00000  b:-0.00000

 -0.19521 = (-0.19522 + -0.19520)/2.0
 sum -  nocc_ = -0.00000043
 On Iteration in Bisection 18
 a: -0.00000  b:-0.00000

 -0.19521 = (-0.19521 + -0.19520)/2.0
 sum -  nocc_ = -0.00000014
 On Iteration in Bisection 19
 a: -0.00000  b:-0.00000

 -0.19521 = (-0.19521 + -0.19520)/2.0
 sum -  nocc_ = 0.00000001
 ef = -0.19521 sum = 1.00000 

 Iter: 15  T:    20000.000  val:-0.195205  sumni 0.00000
 ne = 1.0000

 iter:16  failiter:16  energy:     -1.784671603388  total:     -1.123200092651  error:      0.000000000008
 In Bisection function HOMO = -0.575  LUMO =  3.293

 1.35937 = (-0.57469 + 3.29343)/2.0
 sum -  nocc_ = 4.51926037
 On Iteration in Bisection 0
 a: 4.51926  b:-0.49999

 0.39234 = (-0.57469 + 1.35937)/2.0
 sum -  nocc_ = 1.13311718
 On Iteration in Bisection 1
 a: 1.13312  b:-0.49999

 -0.09118 = (-0.57469 + 0.39234)/2.0
 sum -  nocc_ = 0.01226923
 On Iteration in Bisection 2
 a: 0.01227  b:-0.49999

 -0.33293 = (-0.57469 + -0.09118)/2.0
 sum -  nocc_ = -0.02123076
 On Iteration in Bisection 3
 a: -0.02123  b:-0.49999

 -0.21205 = (-0.33293 + -0.09118)/2.0
 sum -  nocc_ = -0.00133839
 On Iteration in Bisection 4
 a: -0.00134  b:-0.02123

 -0.15162 = (-0.21205 + -0.09118)/2.0
 sum -  nocc_ = 0.00369494
 On Iteration in Bisection 5
 a: 0.00369  b:-0.00134

 -0.18183 = (-0.21205 + -0.15162)/2.0
 sum -  nocc_ = 0.00105755
 On Iteration in Bisection 6
 a: 0.00106  b:-0.00134

 -0.19694 = (-0.21205 + -0.18183)/2.0
 sum -  nocc_ = -0.00013658
 On Iteration in Bisection 7
 a: -0.00014  b:-0.00134

 -0.18939 = (-0.19694 + -0.18183)/2.0
 sum -  nocc_ = 0.00045727
 On Iteration in Bisection 8
 a: 0.00046  b:-0.00014

 -0.19317 = (-0.19694 + -0.18939)/2.0
 sum -  nocc_ = 0.00016006
 On Iteration in Bisection 9
 a: 0.00016  b:-0.00014

 -0.19506 = (-0.19694 + -0.19317)/2.0
 sum -  nocc_ = 0.00001174
 On Iteration in Bisection 10
 a: 0.00001  b:-0.00014

 -0.19600 = (-0.19694 + -0.19506)/2.0
 sum -  nocc_ = -0.00006242
 On Iteration in Bisection 11
 a: -0.00006  b:-0.00014

 -0.19553 = (-0.19600 + -0.19506)/2.0
 sum -  nocc_ = -0.00002534
 On Iteration in Bisection 12
 a: -0.00003  b:-0.00006

 -0.19529 = (-0.19553 + -0.19506)/2.0
 sum -  nocc_ = -0.00000680
 On Iteration in Bisection 13
 a: -0.00001  b:-0.00003

 -0.19517 = (-0.19529 + -0.19506)/2.0
 sum -  nocc_ = 0.00000247
 On Iteration in Bisection 14
 a: 0.00000  b:-0.00001

 -0.19523 = (-0.19529 + -0.19517)/2.0
 sum -  nocc_ = -0.00000217
 On Iteration in Bisection 15
 a: -0.00000  b:-0.00001

 -0.19520 = (-0.19523 + -0.19517)/2.0
 sum -  nocc_ = 0.00000015
 On Iteration in Bisection 16
 a: 0.00000  b:-0.00000

 -0.19522 = (-0.19523 + -0.19520)/2.0
 sum -  nocc_ = -0.00000101
 On Iteration in Bisection 17
 a: -0.00000  b:-0.00000

 -0.19521 = (-0.19522 + -0.19520)/2.0
 sum -  nocc_ = -0.00000043
 On Iteration in Bisection 18
 a: -0.00000  b:-0.00000

 -0.19521 = (-0.19521 + -0.19520)/2.0
 sum -  nocc_ = -0.00000014
 On Iteration in Bisection 19
 a: -0.00000  b:-0.00000

 -0.19521 = (-0.19521 + -0.19520)/2.0
 sum -  nocc_ = 0.00000001
 ef = -0.19521 sum = 1.00000 

 Iter: 16  T:    20000.000  val:-0.195205  sumni 0.00000
 ne = 1.0000

 iter:17  failiter:17  energy:     -1.784671603387  total:     -1.123200092649  error:      0.000000000002
 In Bisection function HOMO = -0.575  LUMO =  3.293

 1.35937 = (-0.57469 + 3.29343)/2.0
 sum -  nocc_ = 4.51926037
 On Iteration in Bisection 0
 a: 4.51926  b:-0.49999

 0.39234 = (-0.57469 + 1.35937)/2.0
 sum -  nocc_ = 1.13311718
 On Iteration in Bisection 1
 a: 1.13312  b:-0.49999

 -0.09118 = (-0.57469 + 0.39234)/2.0
 sum -  nocc_ = 0.01226923
 On Iteration in Bisection 2
 a: 0.01227  b:-0.49999

 -0.33293 = (-0.57469 + -0.09118)/2.0
 sum -  nocc_ = -0.02123076
 On Iteration in Bisection 3
 a: -0.02123  b:-0.49999

 -0.21205 = (-0.33293 + -0.09118)/2.0
 sum -  nocc_ = -0.00133839
 On Iteration in Bisection 4
 a: -0.00134  b:-0.02123

 -0.15162 = (-0.21205 + -0.09118)/2.0
 sum -  nocc_ = 0.00369494
 On Iteration in Bisection 5
 a: 0.00369  b:-0.00134

 -0.18183 = (-0.21205 + -0.15162)/2.0
 sum -  nocc_ = 0.00105755
 On Iteration in Bisection 6
 a: 0.00106  b:-0.00134

 -0.19694 = (-0.21205 + -0.18183)/2.0
 sum -  nocc_ = -0.00013658
 On Iteration in Bisection 7
 a: -0.00014  b:-0.00134

 -0.18939 = (-0.19694 + -0.18183)/2.0
 sum -  nocc_ = 0.00045727
 On Iteration in Bisection 8
 a: 0.00046  b:-0.00014

 -0.19317 = (-0.19694 + -0.18939)/2.0
 sum -  nocc_ = 0.00016006
 On Iteration in Bisection 9
 a: 0.00016  b:-0.00014

 -0.19506 = (-0.19694 + -0.19317)/2.0
 sum -  nocc_ = 0.00001174
 On Iteration in Bisection 10
 a: 0.00001  b:-0.00014

 -0.19600 = (-0.19694 + -0.19506)/2.0
 sum -  nocc_ = -0.00006242
 On Iteration in Bisection 11
 a: -0.00006  b:-0.00014

 -0.19553 = (-0.19600 + -0.19506)/2.0
 sum -  nocc_ = -0.00002534
 On Iteration in Bisection 12
 a: -0.00003  b:-0.00006

 -0.19529 = (-0.19553 + -0.19506)/2.0
 sum -  nocc_ = -0.00000680
 On Iteration in Bisection 13
 a: -0.00001  b:-0.00003

 -0.19517 = (-0.19529 + -0.19506)/2.0
 sum -  nocc_ = 0.00000247
 On Iteration in Bisection 14
 a: 0.00000  b:-0.00001

 -0.19523 = (-0.19529 + -0.19517)/2.0
 sum -  nocc_ = -0.00000217
 On Iteration in Bisection 15
 a: -0.00000  b:-0.00001

 -0.19520 = (-0.19523 + -0.19517)/2.0
 sum -  nocc_ = 0.00000015
 On Iteration in Bisection 16
 a: 0.00000  b:-0.00000

 -0.19522 = (-0.19523 + -0.19520)/2.0
 sum -  nocc_ = -0.00000101
 On Iteration in Bisection 17
 a: -0.00000  b:-0.00000

 -0.19521 = (-0.19522 + -0.19520)/2.0
 sum -  nocc_ = -0.00000043
 On Iteration in Bisection 18
 a: -0.00000  b:-0.00000

 -0.19521 = (-0.19521 + -0.19520)/2.0
 sum -  nocc_ = -0.00000014
 On Iteration in Bisection 19
 a: -0.00000  b:-0.00000

 -0.19521 = (-0.19521 + -0.19520)/2.0
 sum -  nocc_ = 0.00000001
 ef = -0.19521 sum = 1.00000 

 Iter: 17  T:    20000.000  val:-0.195205  sumni 0.00000
 ne = 1.0000

 iter:18  failiter:18  energy:     -1.784671603386  total:     -1.123200092649  error:      0.000000000000
 FTHFEnergy =    -1.123200
 FD_dis[0] = 0.99750744 with -0.574691 eig value
 FD_dis[1] = 0.00247349 with 0.184768 eig value
 FD_dis[2] = 0.00001904 with 0.493158 eig value
 FD_dis[3] = 0.00000003 with 0.896243 eig value
 FD_dis[4] = 0.00000000 with 1.286429 eig value
 FD_dis[5] = 0.00000000 with 1.286429 eig value
 FD_dis[6] = 0.00000000 with 1.896109 eig value
 FD_dis[7] = 0.00000000 with 2.001973 eig value
 FD_dis[8] = 0.00000000 with 2.001973 eig value
 FD_dis[9] = 0.00000000 with 3.293428 eig value
*** PSI4 exiting successfully. Buy a developer a beer!
