    -----------------------------------------------------------------------
          PSI4: An Open-Source Ab Initio Electronic Structure Package
                              PSI 4.0 Driver

               Git: Rev {master} 556e8139d3cfa1f96ccffe2cdf22cc56a185d2b2

    J. M. Turney, A. C. Simmonett, R. M. Parrish, E. G. Hohenstein,
    F. A. Evangelista, J. T. Fermann, B. J. Mintz, L. A. Burns, J. J. Wilke,
    M. L. Abrams, N. J. Russ, M. L. Leininger, C. L. Janssen, E. T. Seidl,
    W. D. Allen, H. F. Schaefer, R. A. King, E. F. Valeev, C. D. Sherrill,
    and T. D. Crawford, WIREs Comput. Mol. Sci. 2, 556-565 (2012)
    (doi: 10.1002/wcms.93)

                         Additional Contributions by
    A. E. DePrince, M. Saitow, U. Bozkaya, A. Yu. Sokolov
    -----------------------------------------------------------------------

    Process ID:  14565
    PSI4DATADIR: /Users/kevinhannon/Programs/psi4cmake/psi4/lib
    Memory level set to 256.000 MB

  ==> Input File <==

--------------------------------------------------------------------------

# PYTHONPATH must include directory above plugin directory.
#     Define either externally or here, then import plugin.
sys.path.insert(0, '/Users/kevinhannon/Programs/Quantum_Programs/Quantum-Programs/GS/')
import scf

molecule {
0 1
H
H 1 1.40000
symmetry c1
units angstrom
}


set {
  basis cc-pvdz
  reference rhf
  scf_type  pk
}

set scf {
  DO_FTHF true
  MAX_ITER 130
  MAX_TEMP 20000
  TEMP_INCREMENT 0
  bisect  true
  bisect_iter  40
}
energy('rhf')
energy('scf')


--------------------------------------------------------------------------

*** tstart() called on Kevins-MacBook-Pro.local
*** at Sun Apr 12 15:45:59 2015

/Users/kevinhannon/Programs/Quantum_Programs/Quantum-Programs/GS/scf/scf.so loaded.

*** tstart() called on Kevins-MacBook-Pro.local
*** at Sun Apr 12 15:45:59 2015


         ---------------------------------------------------------
                                   SCF
            by Justin Turney, Rob Parrish, and Andy Simmonett
                              RHF Reference
                        1 Threads,    256 MiB Core
         ---------------------------------------------------------

  ==> Geometry <==

    Molecular point group: c1
    Full point group: D_inf_h

    Geometry (in Angstrom), charge = 0, multiplicity = 1:

       Center              X                  Y                   Z       
    ------------   -----------------  -----------------  -----------------
           H          0.000000000000     0.000000000000    -0.700000000000
           H          0.000000000000     0.000000000000     0.700000000000

  Running in c1 symmetry.

  Rotational constants: A = ************  B =     17.06810  C =     17.06810 [cm^-1]
  Rotational constants: A = ************  B = 511688.88034  C = 511688.88034 [MHz]
  Nuclear repulsion =    0.377983720421429

  Charge       = 0
  Multiplicity = 1
  Electrons    = 2
  Nalpha       = 1
  Nbeta        = 1

  ==> Algorithm <==

  SCF Algorithm Type is PK.
  DIIS enabled.
  MOM disabled.
  Fractional occupation disabled.
  Guess Type is CORE.
  Energy threshold   = 1.00e-06
  Density threshold  = 1.00e-06
  Integral threshold = 0.00e+00

  ==> Primary Basis <==

  Basis Set: CC-PVDZ
    Number of shells: 6
    Number of basis function: 10
    Number of Cartesian functions: 10
    Spherical Harmonics?: true
    Max angular momentum: 1

  ==> Pre-Iterations <==

   -------------------------------------------------------
    Irrep   Nso     Nmo     Nalpha   Nbeta   Ndocc  Nsocc
   -------------------------------------------------------
     A         10      10       0       0       0       0
   -------------------------------------------------------
    Total      10      10       1       1       1       0
   -------------------------------------------------------

  Starting with a DF guess...

 OEINTS: Overlap, kinetic, potential, dipole, and quadrupole integrals
         stored in file 35.

  ==> Integral Setup <==

  ==> DFJK: Density-Fitted J/K Matrices <==

    J tasked:                  Yes
    K tasked:                  Yes
    wK tasked:                  No
    OpenMP threads:              1
    Integrals threads:           1
    Memory (MB):               183
    Algorithm:                Core
    Integral Cache:           NONE
    Schwarz Cutoff:          1E-12
    Fitting Condition:       1E-12

   => Auxiliary Basis Set <=

  Basis Set: 
    Number of shells: 18
    Number of basis function: 46
    Number of Cartesian functions: 50
    Spherical Harmonics?: true
    Max angular momentum: 2

  Minimum eigenvalue in the overlap matrix is 1.6334452515E-01.
  Using Symmetric Orthogonalization.
  SCF Guess: Core (One-Electron) Hamiltonian.

  ==> Iterations <==

                           Total Energy        Delta E     RMS |[F,P]|

   @DF-RHF iter   1:    -0.98496173337235   -9.84962e-01   1.81797e-02 
   @DF-RHF iter   2:    -1.02009871698228   -3.51370e-02   3.14972e-03 DIIS
   @DF-RHF iter   3:    -1.02120085553682   -1.10214e-03   1.18411e-04 DIIS
   @DF-RHF iter   4:    -1.02120192770734   -1.07217e-06   3.08660e-06 DIIS
   @DF-RHF iter   5:    -1.02120192877904   -1.07169e-09   1.13835e-09 DIIS

  DF guess converged.

  ==> Integral Setup <==

 MINTS: Wrapper to libmints.
   by Justin Turney

   Calculation information:
      Number of atoms:                   2
      Number of AO shells:               6
      Number of SO shells:               6
      Number of primitives:             10
      Number of atomic orbitals:        10
      Number of basis functions:        10

      Number of irreps:                  1
      Integral cutoff                 0.00e+00
      Number of functions per irrep: [  10 ]

 OEINTS: Overlap, kinetic, potential, dipole, and quadrupole integrals
         stored in file 35.

      Computing two-electron integrals...done
      Computed 512 non-zero two-electron integrals.
        Stored in file 33.

	Batch   1 pq = [       0,      55] index = [             0,1540]
  ==> DiskJK: Disk-Based J/K Matrices <==

    J tasked:                  Yes
    K tasked:                  Yes
    wK tasked:                  No
    Memory (MB):               183
    Schwarz Cutoff:          1E-12

   @RHF iter   6:    -1.02119683592857    5.09285e-06   2.05152e-06 DIIS
   @RHF iter   7:    -1.02119683620405   -2.75479e-10   3.20864e-07 DIIS

  ==> Post-Iterations <==

    Orbital Energies (a.u.)
    -----------------------

    Doubly Occupied:                                                      

       1A     -0.453024  

    Virtual:                                                              

       2A      0.059248     3A      0.624577     4A      0.689021  
       5A      1.321394     6A      1.360057     7A      1.360057  
       8A      1.656918     9A      1.656918    10A      2.238097  

    Final Occupation by Irrep:
              A 
    DOCC [     1 ]

  Energy converged.

  @RHF Final Energy:    -1.02119683620405

   => Energetics <=

    Nuclear Repulsion Energy =              0.3779837204214286
    One-Electron Energy =                  -1.8923126279105962
    Two-Electron Energy =                   0.4931320712851179
    DFT Exchange-Correlation Energy =       0.0000000000000000
    Empirical Dispersion Energy =           0.0000000000000000
    PCM Polarization Energy =               0.0000000000000000
    EFP Energy =                            0.0000000000000000
    Total Energy =                         -1.0211968362040498

    Alert: EFP and PCM quantities not currently incorporated into SCF psivars.

Properties will be evaluated at   0.000000,   0.000000,   0.000000 Bohr
  ==> Properties <==


Properties computed using the SCF density matrix

  Nuclear Dipole Moment: (a.u.)
     X:     0.0000      Y:     0.0000      Z:     0.0000

  Electronic Dipole Moment: (a.u.)
     X:    -0.0000      Y:    -0.0000      Z:    -0.0000

  Dipole Moment: (a.u.)
     X:    -0.0000      Y:    -0.0000      Z:    -0.0000     Total:     0.0000

  Dipole Moment: (Debye)
     X:    -0.0000      Y:    -0.0000      Z:    -0.0000     Total:     0.0000


  Saving occupied orbitals to File 180.

*** tstop() called on Kevins-MacBook-Pro.local at Sun Apr 12 15:45:59 2015
Module time:
	user time   =       0.20 seconds =       0.00 minutes
	system time =       0.01 seconds =       0.00 minutes
	total time  =          0 seconds =       0.00 minutes
Total time:
	user time   =       0.22 seconds =       0.00 minutes
	system time =       0.01 seconds =       0.00 minutes
	total time  =          0 seconds =       0.00 minutes

*** tstart() called on Kevins-MacBook-Pro.local
*** at Sun Apr 12 15:45:59 2015


         ---------------------------------------------------------
                                   SCF
            by Justin Turney, Rob Parrish, and Andy Simmonett
                              RHF Reference
                        1 Threads,    256 MiB Core
         ---------------------------------------------------------

  ==> Geometry <==

    Molecular point group: c1
    Full point group: D_inf_h

    Geometry (in Angstrom), charge = 0, multiplicity = 1:

       Center              X                  Y                   Z       
    ------------   -----------------  -----------------  -----------------
           H          0.000000000000     0.000000000000    -0.700000000000
           H          0.000000000000     0.000000000000     0.700000000000

  Running in c1 symmetry.

  Rotational constants: A = ************  B =     17.06810  C =     17.06810 [cm^-1]
  Rotational constants: A = ************  B = 511688.88034  C = 511688.88034 [MHz]
  Nuclear repulsion =    0.377983720421429

  Charge       = 0
  Multiplicity = 1
  Electrons    = 2
  Nalpha       = 1
  Nbeta        = 1

  ==> Algorithm <==

  SCF Algorithm Type is PK.
  DIIS enabled.
  MOM disabled.
  Fractional occupation disabled.
  Guess Type is CORE.
  Energy threshold   = 1.00e-08
  Density threshold  = 1.00e-08
  Integral threshold = 0.00e+00

  ==> Primary Basis <==

  Basis Set: CC-PVDZ
    Number of shells: 6
    Number of basis function: 10
    Number of Cartesian functions: 10
    Spherical Harmonics?: true
    Max angular momentum: 1

  ==> Pre-Iterations <==

   -------------------------------------------------------
    Irrep   Nso     Nmo     Nalpha   Nbeta   Ndocc  Nsocc
   -------------------------------------------------------
     A         10      10       0       0       0       0
   -------------------------------------------------------
    Total      10      10       1       1       1       0
   -------------------------------------------------------

  Starting with a DF guess...

 OEINTS: Overlap, kinetic, potential, dipole, and quadrupole integrals
         stored in file 35.

  ==> Integral Setup <==

  ==> DFJK: Density-Fitted J/K Matrices <==

    J tasked:                  Yes
    K tasked:                  Yes
    wK tasked:                  No
    OpenMP threads:              1
    Integrals threads:           1
    Memory (MB):               183
    Algorithm:                Core
    Integral Cache:           NONE
    Schwarz Cutoff:          1E-12
    Fitting Condition:       1E-12

   => Auxiliary Basis Set <=

  Basis Set: 
    Number of shells: 18
    Number of basis function: 46
    Number of Cartesian functions: 50
    Spherical Harmonics?: true
    Max angular momentum: 2

  Minimum eigenvalue in the overlap matrix is 1.6334452515E-01.
  Using Symmetric Orthogonalization.
  SCF Guess: Core (One-Electron) Hamiltonian.

  ==> Iterations <==

                           Total Energy        Delta E     RMS |[F,P]|

   @DF-RHF iter   1:    -0.98496173337235   -9.84962e-01   1.81797e-02 
   @DF-RHF iter   2:    -1.02009871698228   -3.51370e-02   3.14972e-03 DIIS
   @DF-RHF iter   3:    -1.02120085553682   -1.10214e-03   1.18411e-04 DIIS
   @DF-RHF iter   4:    -1.02120192770734   -1.07217e-06   3.08660e-06 DIIS
   @DF-RHF iter   5:    -1.02120192877904   -1.07169e-09   1.13835e-09 DIIS

  DF guess converged.

  ==> Integral Setup <==

 MINTS: Wrapper to libmints.
   by Justin Turney

   Calculation information:
      Number of atoms:                   2
      Number of AO shells:               6
      Number of SO shells:               6
      Number of primitives:             10
      Number of atomic orbitals:        10
      Number of basis functions:        10

      Number of irreps:                  1
      Integral cutoff                 0.00e+00
      Number of functions per irrep: [  10 ]

 OEINTS: Overlap, kinetic, potential, dipole, and quadrupole integrals
         stored in file 35.

      Computing two-electron integrals...done
      Computed 512 non-zero two-electron integrals.
        Stored in file 33.

	Batch   1 pq = [       0,      55] index = [             0,1540]
  ==> DiskJK: Disk-Based J/K Matrices <==

    J tasked:                  Yes
    K tasked:                  Yes
    wK tasked:                  No
    Memory (MB):               183
    Schwarz Cutoff:          1E-12

   @RHF iter   6:    -1.02119683592857    5.09285e-06   2.05152e-06 DIIS
   @RHF iter   7:    -1.02119683620405   -2.75477e-10   3.20864e-07 DIIS
   @RHF iter   8:    -1.02119683621095   -6.90292e-12   6.41840e-09 DIIS

  ==> Post-Iterations <==

    Orbital Energies (a.u.)
    -----------------------

    Doubly Occupied:                                                      

       1A     -0.453024  

    Virtual:                                                              

       2A      0.059248     3A      0.624577     4A      0.689021  
       5A      1.321394     6A      1.360058     7A      1.360058  
       8A      1.656918     9A      1.656918    10A      2.238098  

    Final Occupation by Irrep:
              A 
    DOCC [     1 ]

  Energy converged.

  @RHF Final Energy:    -1.02119683621095

   => Energetics <=

    Nuclear Repulsion Energy =              0.3779837204214286
    One-Electron Energy =                  -1.8923124121981463
    Two-Electron Energy =                   0.4931318555657646
    DFT Exchange-Correlation Energy =       0.0000000000000000
    Empirical Dispersion Energy =           0.0000000000000000
    PCM Polarization Energy =               0.0000000000000000
    EFP Energy =                            0.0000000000000000
    Total Energy =                         -1.0211968362109529

    Alert: EFP and PCM quantities not currently incorporated into SCF psivars.

Properties will be evaluated at   0.000000,   0.000000,   0.000000 Bohr
  ==> Properties <==


Properties computed using the SCF density matrix

  Nuclear Dipole Moment: (a.u.)
     X:     0.0000      Y:     0.0000      Z:     0.0000

  Electronic Dipole Moment: (a.u.)
     X:     0.0000      Y:     0.0000      Z:    -0.0000

  Dipole Moment: (a.u.)
     X:     0.0000      Y:     0.0000      Z:    -0.0000     Total:     0.0000

  Dipole Moment: (Debye)
     X:     0.0000      Y:     0.0000      Z:    -0.0000     Total:     0.0000


  Saving occupied orbitals to File 180.

*** tstop() called on Kevins-MacBook-Pro.local at Sun Apr 12 15:46:00 2015
Module time:
	user time   =       0.18 seconds =       0.00 minutes
	system time =       0.01 seconds =       0.00 minutes
	total time  =          1 seconds =       0.02 minutes
Total time:
	user time   =       0.41 seconds =       0.01 minutes
	system time =       0.02 seconds =       0.00 minutes
	total time  =          1 seconds =       0.02 minutes
Reading options from the SCF block
Calling plugin scf.so.
    Molecular point group: c1
    Full point group: D_inf_h

    Geometry (in Angstrom), charge = 0, multiplicity = 1:

       Center              X                  Y                   Z       
    ------------   -----------------  -----------------  -----------------
           H          0.000000000000     0.000000000000    -0.700000000000
           H          0.000000000000     0.000000000000     0.700000000000


    Nuclear repulsion energy:       0.37798372

  ## Overlap (Symmetry 0) ##
  Irrep: 1 Size: 10 x 10

                 1                   2                   3                   4                   5

    1     1.00000000000000     0.68486025149275     0.00000000000000     0.00000000000000     0.00000000000000
    2     0.68486025149275     1.00000000000000     0.00000000000000     0.00000000000000     0.00000000000000
    3     0.00000000000000     0.00000000000000     1.00000000000000     0.00000000000000     0.00000000000000
    4     0.00000000000000     0.00000000000000     0.00000000000000     1.00000000000000     0.00000000000000
    5     0.00000000000000     0.00000000000000     0.00000000000000     0.00000000000000     1.00000000000000
    6     0.16099442067124     0.34535594486289     0.20927562250965     0.00000000000000     0.00000000000000
    7     0.34535594486289     0.65249192565295     0.18336701086012     0.00000000000000     0.00000000000000
    8    -0.20927562250965    -0.18336701086012    -0.32107928882214     0.00000000000000     0.00000000000000
    9     0.00000000000000     0.00000000000000     0.00000000000000     0.07853264598379     0.00000000000000
   10     0.00000000000000     0.00000000000000     0.00000000000000     0.00000000000000     0.07853264598379

                 6                   7                   8                   9                  10

    1     0.16099442067124     0.34535594486289    -0.20927562250965     0.00000000000000     0.00000000000000
    2     0.34535594486289     0.65249192565295    -0.18336701086012     0.00000000000000     0.00000000000000
    3     0.20927562250965     0.18336701086012    -0.32107928882214     0.00000000000000     0.00000000000000
    4     0.00000000000000     0.00000000000000     0.00000000000000     0.07853264598379     0.00000000000000
    5     0.00000000000000     0.00000000000000     0.00000000000000     0.00000000000000     0.07853264598379
    6     1.00000000000000     0.68486025149275    -0.00000000000000     0.00000000000000     0.00000000000000
    7     0.68486025149275     1.00000000000000    -0.00000000000000     0.00000000000000     0.00000000000000
    8    -0.00000000000000    -0.00000000000000     1.00000000000000     0.00000000000000     0.00000000000000
    9     0.00000000000000     0.00000000000000     0.00000000000000     1.00000000000000     0.00000000000000
   10     0.00000000000000     0.00000000000000     0.00000000000000     0.00000000000000     1.00000000000000



  ## Kinetic (Symmetry 0) ##
  Irrep: 1 Size: 10 x 10

                 1                   2                   3                   4                   5

    1     0.96945722711242     0.20123413106538    -0.00000000000000     0.00000000000000     0.00000000000000
    2     0.20123413106538     0.18300000000000     0.00000000000000     0.00000000000000     0.00000000000000
    3    -0.00000000000000     0.00000000000000     1.81750000000000     0.00000000000000     0.00000000000000
    4     0.00000000000000     0.00000000000000     0.00000000000000     1.81750000000000     0.00000000000000
    5     0.00000000000000     0.00000000000000     0.00000000000000     0.00000000000000     1.81750000000000
    6    -0.02036538600151     0.05491117688830     0.03920864862960     0.00000000000000     0.00000000000000
    7     0.05491117688830     0.08541856965265     0.06776645304697     0.00000000000000     0.00000000000000
    8    -0.03920864862960    -0.06776645304697    -0.28019096773021     0.00000000000000     0.00000000000000
    9     0.00000000000000     0.00000000000000     0.00000000000000    -0.00252585422642     0.00000000000000
   10     0.00000000000000     0.00000000000000     0.00000000000000     0.00000000000000    -0.00252585422642

                 6                   7                   8                   9                  10

    1    -0.02036538600151     0.05491117688830    -0.03920864862960     0.00000000000000     0.00000000000000
    2     0.05491117688830     0.08541856965265    -0.06776645304697     0.00000000000000     0.00000000000000
    3     0.03920864862960     0.06776645304697    -0.28019096773021     0.00000000000000     0.00000000000000
    4     0.00000000000000     0.00000000000000     0.00000000000000    -0.00252585422642     0.00000000000000
    5     0.00000000000000     0.00000000000000     0.00000000000000     0.00000000000000    -0.00252585422642
    6     0.96945722711242     0.20123413106538     0.00000000000000     0.00000000000000     0.00000000000000
    7     0.20123413106538     0.18300000000000    -0.00000000000000     0.00000000000000     0.00000000000000
    8     0.00000000000000    -0.00000000000000     1.81750000000000     0.00000000000000     0.00000000000000
    9     0.00000000000000     0.00000000000000     0.00000000000000     1.81750000000000     0.00000000000000
   10     0.00000000000000     0.00000000000000     0.00000000000000     0.00000000000000     1.81750000000000



  ## Potential (Symmetry 0) ##
  Irrep: 1 Size: 10 x 10

                 1                   2                   3                   4                   5

    1    -1.75574076144301    -0.90745956537456    -0.08980822721171     0.00000000000000     0.00000000000000
    2    -0.90745956537456    -0.91095138618341    -0.08365928222194     0.00000000000000     0.00000000000000
    3    -0.08980822721171    -0.08365928222194    -1.32214618084017     0.00000000000000     0.00000000000000
    4     0.00000000000000     0.00000000000000     0.00000000000000    -1.26649425564171     0.00000000000000
    5     0.00000000000000     0.00000000000000     0.00000000000000     0.00000000000000    -1.26649425564171
    6    -0.23728251206215    -0.46685919269005    -0.30241913803554     0.00000000000000     0.00000000000000
    7    -0.46685919269005    -0.63586714014981    -0.25824667344694     0.00000000000000     0.00000000000000
    8     0.30241913803554     0.25824667344694     0.45159351709826     0.00000000000000     0.00000000000000
    9     0.00000000000000     0.00000000000000     0.00000000000000    -0.09640236756422     0.00000000000000
   10     0.00000000000000     0.00000000000000     0.00000000000000     0.00000000000000    -0.09640236756422

                 6                   7                   8                   9                  10

    1    -0.23728251206215    -0.46685919269005     0.30241913803554     0.00000000000000     0.00000000000000
    2    -0.46685919269005    -0.63586714014981     0.25824667344694     0.00000000000000     0.00000000000000
    3    -0.30241913803554    -0.25824667344694     0.45159351709826     0.00000000000000     0.00000000000000
    4     0.00000000000000     0.00000000000000     0.00000000000000    -0.09640236756422     0.00000000000000
    5     0.00000000000000     0.00000000000000     0.00000000000000     0.00000000000000    -0.09640236756422
    6    -1.75574076144301    -0.90745956537456     0.08980822721171     0.00000000000000     0.00000000000000
    7    -0.90745956537456    -0.91095138618341     0.08365928222194     0.00000000000000     0.00000000000000
    8     0.08980822721171     0.08365928222194    -1.32214618084017     0.00000000000000     0.00000000000000
    9     0.00000000000000     0.00000000000000     0.00000000000000    -1.26649425564171     0.00000000000000
   10     0.00000000000000     0.00000000000000     0.00000000000000     0.00000000000000    -1.26649425564171



  ## One Electron Ints (Symmetry 0) ##
  Irrep: 1 Size: 10 x 10

                 1                   2                   3                   4                   5

    1    -0.78628353433058    -0.70622543430917    -0.08980822721171     0.00000000000000     0.00000000000000
    2    -0.70622543430917    -0.72795138618341    -0.08365928222194     0.00000000000000     0.00000000000000
    3    -0.08980822721171    -0.08365928222194     0.49535381915983     0.00000000000000     0.00000000000000
    4     0.00000000000000     0.00000000000000     0.00000000000000     0.55100574435829     0.00000000000000
    5     0.00000000000000     0.00000000000000     0.00000000000000     0.00000000000000     0.55100574435829
    6    -0.25764789806366    -0.41194801580175    -0.26321048940594     0.00000000000000     0.00000000000000
    7    -0.41194801580175    -0.55044857049717    -0.19048022039997     0.00000000000000     0.00000000000000
    8     0.26321048940594     0.19048022039997     0.17140254936805     0.00000000000000     0.00000000000000
    9     0.00000000000000     0.00000000000000     0.00000000000000    -0.09892822179064     0.00000000000000
   10     0.00000000000000     0.00000000000000     0.00000000000000     0.00000000000000    -0.09892822179064

                 6                   7                   8                   9                  10

    1    -0.25764789806366    -0.41194801580175     0.26321048940594     0.00000000000000     0.00000000000000
    2    -0.41194801580175    -0.55044857049717     0.19048022039997     0.00000000000000     0.00000000000000
    3    -0.26321048940594    -0.19048022039997     0.17140254936805     0.00000000000000     0.00000000000000
    4     0.00000000000000     0.00000000000000     0.00000000000000    -0.09892822179064     0.00000000000000
    5     0.00000000000000     0.00000000000000     0.00000000000000     0.00000000000000    -0.09892822179064
    6    -0.78628353433058    -0.70622543430917     0.08980822721171     0.00000000000000     0.00000000000000
    7    -0.70622543430917    -0.72795138618341     0.08365928222194     0.00000000000000     0.00000000000000
    8     0.08980822721171     0.08365928222194     0.49535381915983     0.00000000000000     0.00000000000000
    9     0.00000000000000     0.00000000000000     0.00000000000000     0.55100574435829     0.00000000000000
   10     0.00000000000000     0.00000000000000     0.00000000000000     0.00000000000000     0.55100574435829




	There are 0 unique integrals

  ## Fock (Symmetry 0) ##
  Irrep: 1 Size: 10 x 10

                 1                   2                   3                   4                   5

    1    -0.52166791772515    -0.34015870196790    -0.02766052295431     0.00000000000000     0.00000000000000
    2    -0.34015870196790    -0.32963649989137     0.13582768051000     0.00000000000000     0.00000000000000
    3    -0.02766052295431     0.13582768051000     0.73840589525845     0.00000000000000     0.00000000000000
    4     0.00000000000000     0.00000000000000     0.00000000000000     0.56224239993432     0.00000000000000
    5     0.00000000000000     0.00000000000000     0.00000000000000     0.00000000000000     0.56224239993432
    6    -0.03752579149416    -0.07519786785674    -0.20539136683418    -0.00000000000000     0.00000000000000
    7    -0.07519786785674    -0.13606647442536    -0.17643350908941    -0.00000000000000     0.00000000000000
    8     0.20539136683418     0.17643350908941     0.44420637693134     0.00000000000000     0.00000000000000
    9    -0.00000000000000    -0.00000000000000    -0.00000000000000    -0.14308260514176     0.00000000000000
   10     0.00000000000000     0.00000000000000     0.00000000000000     0.00000000000000    -0.14308260514176

                 6                   7                   8                   9                  10

    1    -0.03752579149416    -0.07519786785675     0.20539136683418    -0.00000000000000     0.00000000000000
    2    -0.07519786785674    -0.13606647442536     0.17643350908941    -0.00000000000000     0.00000000000000
    3    -0.20539136683418    -0.17643350908941     0.44420637693134    -0.00000000000000     0.00000000000000
    4    -0.00000000000000    -0.00000000000000     0.00000000000000    -0.14308260514176     0.00000000000000
    5     0.00000000000000     0.00000000000000     0.00000000000000     0.00000000000000    -0.14308260514176
    6    -0.52166791772515    -0.34015870196790     0.02766052295431     0.00000000000000     0.00000000000000
    7    -0.34015870196790    -0.32963649989137    -0.13582768051000    -0.00000000000000     0.00000000000000
    8     0.02766052295431    -0.13582768051000     0.73840589525845    -0.00000000000000     0.00000000000000
    9     0.00000000000000    -0.00000000000000    -0.00000000000000     0.56224239993432     0.00000000000000
   10     0.00000000000000     0.00000000000000     0.00000000000000     0.00000000000000     0.56224239993432



  ## C (Symmetry 0) ##
  Irrep: 1 Size: 10 x 10

                 1                   2                   3                   4                   5

    1     1.00161471458077     0.78325222867193     0.08553274832101     0.05516048296457    -0.01149270211247
    2    -1.17430658651534    -0.91983245456787     0.15275504640285     0.08215367292613     0.40378464535643
    3     0.39462371104563    -0.62224685220101     0.21060110540647     0.20071470180342     0.09364637503860
    4    -0.39838269112214     0.57944092647398    -0.08868688075543     0.00000000000000     0.02787303092197
    5    -0.20429328167385     0.06306068819800     0.64852549495706    -0.00000000000000     0.00000000000000
    6    -0.04198803383387     0.03864378446929    -0.01235710420467    -0.92385001450014     0.37483586020821
    7     0.28566616676177     0.29711274815211    -0.08993923261214     0.29342416738123    -1.14205739126006
    8     0.05120634654515    -0.12338158914442     0.06155704457068     0.77363716427921     0.08141169282699
    9     0.01566721719142    -0.02278770400163     0.00348779365617    -0.00000000000000    -0.70874954580364
   10     0.05735114708363     0.13733372056092     0.66644430229950     0.00000000000000     0.00000000000000

                 6                   7                   8                   9                  10

    1     0.38378542038915     0.37775652620115    -0.21150054939942    -0.05920425626046    -0.01149270211247
    2     0.70810805646089     0.31563995693969     0.23104616782052    -0.10513907715107     0.40378464535643
    3     0.52881185593204    -0.53417605888397    -0.18324179159431    -0.08634996257839     0.09364637503860
    4     0.39838269112214    -0.57944092647398    -0.08868688075543    -0.00000000000000    -0.02787303092197
    5    -0.20040829685618     0.07407464505156    -0.70303442136827    -0.00000000000000     0.00000000000000
    6    -0.02304500092727     0.05107653653787     0.01621935583863    -0.90788378778275     0.37483586020821
    7    -0.37987843269945    -0.13969961639800    -0.04575713287573     0.45624755303520    -1.14205739126006
    8     0.20556050508687    -0.02207537311422    -0.03008612837812    -0.75767093756183     0.08141169282699
    9    -0.01566721719142     0.02278770400163     0.00348779365617    -0.00000000000000     0.70874954580364
   10    -0.04143542667249    -0.14272684907408     0.71959717070509    -0.00000000000000     0.00000000000000




 In Bisection function HOMO = -0.963  LUMO =  1.258

 0.14770 = (-0.96297 + 1.25837)/2.0
 sum -  nocc_ = 3.01182294
 On Iteration in Bisection 0
 a: 3.01182  b:-0.48583

 -0.40764 = (-0.96297 + 0.14770)/2.0
 sum -  nocc_ = 1.00507836
 On Iteration in Bisection 1
 a: 1.00508  b:-0.48583

 -0.68530 = (-0.96297 + -0.40764)/2.0
 sum -  nocc_ = 0.52325088
 On Iteration in Bisection 2
 a: 0.52325  b:-0.48583

 -0.82414 = (-0.96297 + -0.68530)/2.0
 sum -  nocc_ = 0.01357267
 On Iteration in Bisection 3
 a: 0.01357  b:-0.48583

 -0.89356 = (-0.96297 + -0.82414)/2.0
 sum -  nocc_ = -0.20923986
 On Iteration in Bisection 4
 a: -0.20924  b:-0.48583

 -0.85885 = (-0.89356 + -0.82414)/2.0
 sum -  nocc_ = -0.09265692
 On Iteration in Bisection 5
 a: -0.09266  b:-0.20924

 -0.84149 = (-0.85885 + -0.82414)/2.0
 sum -  nocc_ = -0.03893567
 On Iteration in Bisection 6
 a: -0.03894  b:-0.09266

 -0.83282 = (-0.84149 + -0.82414)/2.0
 sum -  nocc_ = -0.01263127
 On Iteration in Bisection 7
 a: -0.01263  b:-0.03894

 -0.82848 = (-0.83282 + -0.82414)/2.0
 sum -  nocc_ = 0.00047020
 On Iteration in Bisection 8
 a: 0.00047  b:-0.01263

 -0.83065 = (-0.83282 + -0.82848)/2.0
 sum -  nocc_ = -0.00607902
 On Iteration in Bisection 9
 a: -0.00608  b:-0.01263

 -0.82956 = (-0.83065 + -0.82848)/2.0
 sum -  nocc_ = -0.00280423
 On Iteration in Bisection 10
 a: -0.00280  b:-0.00608

 -0.82902 = (-0.82956 + -0.82848)/2.0
 sum -  nocc_ = -0.00116700
 On Iteration in Bisection 11
 a: -0.00117  b:-0.00280

 -0.82875 = (-0.82902 + -0.82848)/2.0
 sum -  nocc_ = -0.00034839
 On Iteration in Bisection 12
 a: -0.00035  b:-0.00117

 -0.82861 = (-0.82875 + -0.82848)/2.0
 sum -  nocc_ = 0.00006090
 On Iteration in Bisection 13
 a: 0.00006  b:-0.00035

 -0.82868 = (-0.82875 + -0.82861)/2.0
 sum -  nocc_ = -0.00014375
 On Iteration in Bisection 14
 a: -0.00014  b:-0.00035

 -0.82865 = (-0.82868 + -0.82861)/2.0
 sum -  nocc_ = -0.00004142
 On Iteration in Bisection 15
 a: -0.00004  b:-0.00014

 -0.82863 = (-0.82865 + -0.82861)/2.0
 sum -  nocc_ = 0.00000974
 On Iteration in Bisection 16
 a: 0.00001  b:-0.00004

 -0.82864 = (-0.82865 + -0.82863)/2.0
 sum -  nocc_ = -0.00001584
 On Iteration in Bisection 17
 a: -0.00002  b:-0.00004

 -0.82863 = (-0.82864 + -0.82863)/2.0
 sum -  nocc_ = -0.00000305
 On Iteration in Bisection 18
 a: -0.00000  b:-0.00002

 -0.82863 = (-0.82863 + -0.82863)/2.0
 sum -  nocc_ = 0.00000335
 On Iteration in Bisection 19
 a: 0.00000  b:-0.00000

 -0.82863 = (-0.82863 + -0.82863)/2.0
 sum -  nocc_ = 0.00000015
 On Iteration in Bisection 20
 a: 0.00000  b:-0.00000

 -0.82863 = (-0.82863 + -0.82863)/2.0
 sum -  nocc_ = -0.00000145
 On Iteration in Bisection 21
 a: -0.00000  b:-0.00000

 -0.82863 = (-0.82863 + -0.82863)/2.0
 sum -  nocc_ = -0.00000065
 On Iteration in Bisection 22
 a: -0.00000  b:-0.00000

 -0.82863 = (-0.82863 + -0.82863)/2.0
 sum -  nocc_ = -0.00000025
 On Iteration in Bisection 23
 a: -0.00000  b:-0.00000

 -0.82863 = (-0.82863 + -0.82863)/2.0
 sum -  nocc_ = -0.00000005
 On Iteration in Bisection 24
 a: -0.00000  b:-0.00000

 -0.82863 = (-0.82863 + -0.82863)/2.0
 sum -  nocc_ = 0.00000005
 On Iteration in Bisection 25
 a: 0.00000  b:-0.00000

 -0.82863 = (-0.82863 + -0.82863)/2.0
 sum -  nocc_ = -0.00000000
 ef = -0.82863 sum = 1.00000 

 Iter: 0  T:    20000.000  val:-0.828633  sumni 0.00000
 ne = 1.0000

Nuc Replusion =       0.377983720421
 1st iteration =       0.308208309270
 In Bisection function HOMO = -0.227  LUMO =  2.172

 0.97242 = (-0.22697 + 2.17182)/2.0
 sum -  nocc_ = 3.09639016
 On Iteration in Bisection 0
 a: 3.09639  b:-0.49800

 0.37273 = (-0.22697 + 0.97242)/2.0
 sum -  nocc_ = 1.26288242
 On Iteration in Bisection 1
 a: 1.26288  b:-0.49800

 0.07288 = (-0.22697 + 0.37273)/2.0
 sum -  nocc_ = 0.17793653
 On Iteration in Bisection 2
 a: 0.17794  b:-0.49800

 -0.07705 = (-0.22697 + 0.07288)/2.0
 sum -  nocc_ = -0.06479027
 On Iteration in Bisection 3
 a: -0.06479  b:-0.49800

 -0.00209 = (-0.07705 + 0.07288)/2.0
 sum -  nocc_ = 0.03741098
 On Iteration in Bisection 4
 a: 0.03741  b:-0.06479

 -0.03957 = (-0.07705 + -0.00209)/2.0
 sum -  nocc_ = -0.01212193
 On Iteration in Bisection 5
 a: -0.01212  b:-0.06479

 -0.02083 = (-0.03957 + -0.00209)/2.0
 sum -  nocc_ = 0.01223211
 On Iteration in Bisection 6
 a: 0.01223  b:-0.01212

 -0.03020 = (-0.03957 + -0.02083)/2.0
 sum -  nocc_ = 0.00005281
 On Iteration in Bisection 7
 a: 0.00005  b:-0.01212

 -0.03488 = (-0.03957 + -0.03020)/2.0
 sum -  nocc_ = -0.00602254
 On Iteration in Bisection 8
 a: -0.00602  b:-0.01212

 -0.03254 = (-0.03488 + -0.03020)/2.0
 sum -  nocc_ = -0.00298343
 On Iteration in Bisection 9
 a: -0.00298  b:-0.00602

 -0.03137 = (-0.03254 + -0.03020)/2.0
 sum -  nocc_ = -0.00146515
 On Iteration in Bisection 10
 a: -0.00147  b:-0.00298

 -0.03078 = (-0.03137 + -0.03020)/2.0
 sum -  nocc_ = -0.00070615
 On Iteration in Bisection 11
 a: -0.00071  b:-0.00147

 -0.03049 = (-0.03078 + -0.03020)/2.0
 sum -  nocc_ = -0.00032667
 On Iteration in Bisection 12
 a: -0.00033  b:-0.00071

 -0.03034 = (-0.03049 + -0.03020)/2.0
 sum -  nocc_ = -0.00013693
 On Iteration in Bisection 13
 a: -0.00014  b:-0.00033

 -0.03027 = (-0.03034 + -0.03020)/2.0
 sum -  nocc_ = -0.00004206
 On Iteration in Bisection 14
 a: -0.00004  b:-0.00014

 -0.03023 = (-0.03027 + -0.03020)/2.0
 sum -  nocc_ = 0.00000537
 On Iteration in Bisection 15
 a: 0.00001  b:-0.00004

 -0.03025 = (-0.03027 + -0.03023)/2.0
 sum -  nocc_ = -0.00001834
 On Iteration in Bisection 16
 a: -0.00002  b:-0.00004

 -0.03024 = (-0.03025 + -0.03023)/2.0
 sum -  nocc_ = -0.00000648
 On Iteration in Bisection 17
 a: -0.00001  b:-0.00002

 -0.03024 = (-0.03024 + -0.03023)/2.0
 sum -  nocc_ = -0.00000056
 On Iteration in Bisection 18
 a: -0.00000  b:-0.00001

 -0.03024 = (-0.03024 + -0.03023)/2.0
 sum -  nocc_ = 0.00000241
 On Iteration in Bisection 19
 a: 0.00000  b:-0.00000

 -0.03024 = (-0.03024 + -0.03024)/2.0
 sum -  nocc_ = 0.00000093
 On Iteration in Bisection 20
 a: 0.00000  b:-0.00000

 -0.03024 = (-0.03024 + -0.03024)/2.0
 sum -  nocc_ = 0.00000019
 On Iteration in Bisection 21
 a: 0.00000  b:-0.00000

 -0.03024 = (-0.03024 + -0.03024)/2.0
 sum -  nocc_ = -0.00000018
 On Iteration in Bisection 22
 a: -0.00000  b:-0.00000

 -0.03024 = (-0.03024 + -0.03024)/2.0
 sum -  nocc_ = 0.00000000
 ef = -0.03024 sum = 1.00000 

 Iter: 0  T:    20000.000  val:-0.030239  sumni 0.00000
 ne = 1.0000

 iter:1  failiter:1  energy:     -1.067831532311  total:     -0.689847811890  error:     -0.046634696101
 In Bisection function HOMO = -0.380  LUMO =  2.254

 0.93697 = (-0.37993 + 2.25388)/2.0
 sum -  nocc_ = 2.94085016
 On Iteration in Bisection 0
 a: 2.94085  b:-0.49560

 0.27852 = (-0.37993 + 0.93697)/2.0
 sum -  nocc_ = 1.03293161
 On Iteration in Bisection 1
 a: 1.03293  b:-0.49560

 -0.05071 = (-0.37993 + 0.27852)/2.0
 sum -  nocc_ = 0.43907279
 On Iteration in Bisection 2
 a: 0.43907  b:-0.49560

 -0.21532 = (-0.37993 + -0.05071)/2.0
 sum -  nocc_ = -0.01306701
 On Iteration in Bisection 3
 a: -0.01307  b:-0.49560

 -0.13301 = (-0.21532 + -0.05071)/2.0
 sum -  nocc_ = 0.15919438
 On Iteration in Bisection 4
 a: 0.15919  b:-0.01307

 -0.17417 = (-0.21532 + -0.13301)/2.0
 sum -  nocc_ = 0.06487416
 On Iteration in Bisection 5
 a: 0.06487  b:-0.01307

 -0.19474 = (-0.21532 + -0.17417)/2.0
 sum -  nocc_ = 0.02505623
 On Iteration in Bisection 6
 a: 0.02506  b:-0.01307

 -0.20503 = (-0.21532 + -0.19474)/2.0
 sum -  nocc_ = 0.00594368
 On Iteration in Bisection 7
 a: 0.00594  b:-0.01307

 -0.21018 = (-0.21532 + -0.20503)/2.0
 sum -  nocc_ = -0.00355408
 On Iteration in Bisection 8
 a: -0.00355  b:-0.01307

 -0.20760 = (-0.21018 + -0.20503)/2.0
 sum -  nocc_ = 0.00119415
 On Iteration in Bisection 9
 a: 0.00119  b:-0.00355

 -0.20889 = (-0.21018 + -0.20760)/2.0
 sum -  nocc_ = -0.00117981
 On Iteration in Bisection 10
 a: -0.00118  b:-0.00355

 -0.20825 = (-0.20889 + -0.20760)/2.0
 sum -  nocc_ = 0.00000717
 On Iteration in Bisection 11
 a: 0.00001  b:-0.00118

 -0.20857 = (-0.20889 + -0.20825)/2.0
 sum -  nocc_ = -0.00058631
 On Iteration in Bisection 12
 a: -0.00059  b:-0.00118

 -0.20841 = (-0.20857 + -0.20825)/2.0
 sum -  nocc_ = -0.00028957
 On Iteration in Bisection 13
 a: -0.00029  b:-0.00059

 -0.20833 = (-0.20841 + -0.20825)/2.0
 sum -  nocc_ = -0.00014120
 On Iteration in Bisection 14
 a: -0.00014  b:-0.00029

 -0.20829 = (-0.20833 + -0.20825)/2.0
 sum -  nocc_ = -0.00006701
 On Iteration in Bisection 15
 a: -0.00007  b:-0.00014

 -0.20827 = (-0.20829 + -0.20825)/2.0
 sum -  nocc_ = -0.00002992
 On Iteration in Bisection 16
 a: -0.00003  b:-0.00007

 -0.20826 = (-0.20827 + -0.20825)/2.0
 sum -  nocc_ = -0.00001137
 On Iteration in Bisection 17
 a: -0.00001  b:-0.00003

 -0.20825 = (-0.20826 + -0.20825)/2.0
 sum -  nocc_ = -0.00000210
 On Iteration in Bisection 18
 a: -0.00000  b:-0.00001

 -0.20825 = (-0.20825 + -0.20825)/2.0
 sum -  nocc_ = 0.00000254
 On Iteration in Bisection 19
 a: 0.00000  b:-0.00000

 -0.20825 = (-0.20825 + -0.20825)/2.0
 sum -  nocc_ = 0.00000022
 On Iteration in Bisection 20
 a: 0.00000  b:-0.00000

 -0.20825 = (-0.20825 + -0.20825)/2.0
 sum -  nocc_ = -0.00000094
 On Iteration in Bisection 21
 a: -0.00000  b:-0.00000

 -0.20825 = (-0.20825 + -0.20825)/2.0
 sum -  nocc_ = -0.00000036
 On Iteration in Bisection 22
 a: -0.00000  b:-0.00000

 -0.20825 = (-0.20825 + -0.20825)/2.0
 sum -  nocc_ = -0.00000007
 On Iteration in Bisection 23
 a: -0.00000  b:-0.00000

 -0.20825 = (-0.20825 + -0.20825)/2.0
 sum -  nocc_ = 0.00000007
 On Iteration in Bisection 24
 a: 0.00000  b:-0.00000

 -0.20825 = (-0.20825 + -0.20825)/2.0
 sum -  nocc_ = 0.00000000
 ef = -0.20825 sum = 1.00000 

 Iter: 1  T:    20000.000  val:-0.208251  sumni 0.00000
 ne = 1.0000

 iter:2  failiter:2  energy:     -1.283984425543  total:     -0.906000705122  error:     -0.216152893232
 In Bisection function HOMO = -0.440  LUMO =  2.227

 0.89355 = (-0.44030 + 2.22739)/2.0
 sum -  nocc_ = 2.95583052
 On Iteration in Bisection 0
 a: 2.95583  b:-0.49948

 0.22662 = (-0.44030 + 0.89355)/2.0
 sum -  nocc_ = 0.95434285
 On Iteration in Bisection 1
 a: 0.95434  b:-0.49948

 -0.10684 = (-0.44030 + 0.22662)/2.0
 sum -  nocc_ = 0.08706985
 On Iteration in Bisection 2
 a: 0.08707  b:-0.49948

 -0.27357 = (-0.44030 + -0.10684)/2.0
 sum -  nocc_ = -0.05981916
 On Iteration in Bisection 3
 a: -0.05982  b:-0.49948

 -0.19020 = (-0.27357 + -0.10684)/2.0
 sum -  nocc_ = 0.00760190
 On Iteration in Bisection 4
 a: 0.00760  b:-0.05982

 -0.23188 = (-0.27357 + -0.19020)/2.0
 sum -  nocc_ = -0.02198292
 On Iteration in Bisection 5
 a: -0.02198  b:-0.05982

 -0.21104 = (-0.23188 + -0.19020)/2.0
 sum -  nocc_ = -0.00686679
 On Iteration in Bisection 6
 a: -0.00687  b:-0.02198

 -0.20062 = (-0.21104 + -0.19020)/2.0
 sum -  nocc_ = 0.00036327
 On Iteration in Bisection 7
 a: 0.00036  b:-0.00687

 -0.20583 = (-0.21104 + -0.20062)/2.0
 sum -  nocc_ = -0.00324223
 On Iteration in Bisection 8
 a: -0.00324  b:-0.00687

 -0.20323 = (-0.20583 + -0.20062)/2.0
 sum -  nocc_ = -0.00143842
 On Iteration in Bisection 9
 a: -0.00144  b:-0.00324

 -0.20193 = (-0.20323 + -0.20062)/2.0
 sum -  nocc_ = -0.00053748
 On Iteration in Bisection 10
 a: -0.00054  b:-0.00144

 -0.20127 = (-0.20193 + -0.20062)/2.0
 sum -  nocc_ = -0.00008710
 On Iteration in Bisection 11
 a: -0.00009  b:-0.00054

 -0.20095 = (-0.20127 + -0.20062)/2.0
 sum -  nocc_ = 0.00013808
 On Iteration in Bisection 12
 a: 0.00014  b:-0.00009

 -0.20111 = (-0.20127 + -0.20095)/2.0
 sum -  nocc_ = 0.00002549
 On Iteration in Bisection 13
 a: 0.00003  b:-0.00009

 -0.20119 = (-0.20127 + -0.20111)/2.0
 sum -  nocc_ = -0.00003080
 On Iteration in Bisection 14
 a: -0.00003  b:-0.00009

 -0.20115 = (-0.20119 + -0.20111)/2.0
 sum -  nocc_ = -0.00000266
 On Iteration in Bisection 15
 a: -0.00000  b:-0.00003

 -0.20113 = (-0.20115 + -0.20111)/2.0
 sum -  nocc_ = 0.00001142
 On Iteration in Bisection 16
 a: 0.00001  b:-0.00000

 -0.20114 = (-0.20115 + -0.20113)/2.0
 sum -  nocc_ = 0.00000438
 On Iteration in Bisection 17
 a: 0.00000  b:-0.00000

 -0.20115 = (-0.20115 + -0.20114)/2.0
 sum -  nocc_ = 0.00000086
 On Iteration in Bisection 18
 a: 0.00000  b:-0.00000

 -0.20115 = (-0.20115 + -0.20115)/2.0
 sum -  nocc_ = -0.00000090
 On Iteration in Bisection 19
 a: -0.00000  b:-0.00000

 -0.20115 = (-0.20115 + -0.20115)/2.0
 sum -  nocc_ = -0.00000002
 On Iteration in Bisection 20
 a: -0.00000  b:-0.00000

 -0.20115 = (-0.20115 + -0.20115)/2.0
 sum -  nocc_ = 0.00000042
 On Iteration in Bisection 21
 a: 0.00000  b:-0.00000

 -0.20115 = (-0.20115 + -0.20115)/2.0
 sum -  nocc_ = 0.00000020
 On Iteration in Bisection 22
 a: 0.00000  b:-0.00000

 -0.20115 = (-0.20115 + -0.20115)/2.0
 sum -  nocc_ = 0.00000009
 On Iteration in Bisection 23
 a: 0.00000  b:-0.00000

 -0.20115 = (-0.20115 + -0.20115)/2.0
 sum -  nocc_ = 0.00000004
 On Iteration in Bisection 24
 a: 0.00000  b:-0.00000

 -0.20115 = (-0.20115 + -0.20115)/2.0
 sum -  nocc_ = 0.00000001
 ef = -0.20115 sum = 1.00000 

 Iter: 2  T:    20000.000  val:-0.201148  sumni 0.00000
 ne = 1.0000

 iter:3  failiter:3  energy:     -1.368486539334  total:     -0.990502818912  error:     -0.084502113791
 In Bisection function HOMO = -0.449  LUMO =  2.234

 0.89262 = (-0.44873 + 2.23398)/2.0
 sum -  nocc_ = 2.95161508
 On Iteration in Bisection 0
 a: 2.95162  b:-0.49963

 0.22194 = (-0.44873 + 0.89262)/2.0
 sum -  nocc_ = 0.93886353
 On Iteration in Bisection 1
 a: 0.93886  b:-0.49963

 -0.11339 = (-0.44873 + 0.22194)/2.0
 sum -  nocc_ = 0.06385331
 On Iteration in Bisection 2
 a: 0.06385  b:-0.49963

 -0.28106 = (-0.44873 + -0.11339)/2.0
 sum -  nocc_ = -0.06093706
 On Iteration in Bisection 3
 a: -0.06094  b:-0.49963

 -0.19723 = (-0.28106 + -0.11339)/2.0
 sum -  nocc_ = 0.00079472
 On Iteration in Bisection 4
 a: 0.00079  b:-0.06094

 -0.23915 = (-0.28106 + -0.19723)/2.0
 sum -  nocc_ = -0.02520415
 On Iteration in Bisection 5
 a: -0.02520  b:-0.06094

 -0.21819 = (-0.23915 + -0.19723)/2.0
 sum -  nocc_ = -0.01163874
 On Iteration in Bisection 6
 a: -0.01164  b:-0.02520

 -0.20771 = (-0.21819 + -0.19723)/2.0
 sum -  nocc_ = -0.00535683
 On Iteration in Bisection 7
 a: -0.00536  b:-0.01164

 -0.20247 = (-0.20771 + -0.19723)/2.0
 sum -  nocc_ = -0.00227414
 On Iteration in Bisection 8
 a: -0.00227  b:-0.00536

 -0.19985 = (-0.20247 + -0.19723)/2.0
 sum -  nocc_ = -0.00073915
 On Iteration in Bisection 9
 a: -0.00074  b:-0.00227

 -0.19854 = (-0.19985 + -0.19723)/2.0
 sum -  nocc_ = 0.00002778
 On Iteration in Bisection 10
 a: 0.00003  b:-0.00074

 -0.19919 = (-0.19985 + -0.19854)/2.0
 sum -  nocc_ = -0.00035567
 On Iteration in Bisection 11
 a: -0.00036  b:-0.00074

 -0.19887 = (-0.19919 + -0.19854)/2.0
 sum -  nocc_ = -0.00016394
 On Iteration in Bisection 12
 a: -0.00016  b:-0.00036

 -0.19870 = (-0.19887 + -0.19854)/2.0
 sum -  nocc_ = -0.00006808
 On Iteration in Bisection 13
 a: -0.00007  b:-0.00016

 -0.19862 = (-0.19870 + -0.19854)/2.0
 sum -  nocc_ = -0.00002015
 On Iteration in Bisection 14
 a: -0.00002  b:-0.00007

 -0.19858 = (-0.19862 + -0.19854)/2.0
 sum -  nocc_ = 0.00000381
 On Iteration in Bisection 15
 a: 0.00000  b:-0.00002

 -0.19860 = (-0.19862 + -0.19858)/2.0
 sum -  nocc_ = -0.00000817
 On Iteration in Bisection 16
 a: -0.00001  b:-0.00002

 -0.19859 = (-0.19860 + -0.19858)/2.0
 sum -  nocc_ = -0.00000218
 On Iteration in Bisection 17
 a: -0.00000  b:-0.00001

 -0.19858 = (-0.19859 + -0.19858)/2.0
 sum -  nocc_ = 0.00000082
 On Iteration in Bisection 18
 a: 0.00000  b:-0.00000

 -0.19859 = (-0.19859 + -0.19858)/2.0
 sum -  nocc_ = -0.00000068
 On Iteration in Bisection 19
 a: -0.00000  b:-0.00000

 -0.19859 = (-0.19859 + -0.19858)/2.0
 sum -  nocc_ = 0.00000007
 On Iteration in Bisection 20
 a: 0.00000  b:-0.00000

 -0.19859 = (-0.19859 + -0.19859)/2.0
 sum -  nocc_ = -0.00000031
 On Iteration in Bisection 21
 a: -0.00000  b:-0.00000

 -0.19859 = (-0.19859 + -0.19859)/2.0
 sum -  nocc_ = -0.00000012
 On Iteration in Bisection 22
 a: -0.00000  b:-0.00000

 -0.19859 = (-0.19859 + -0.19859)/2.0
 sum -  nocc_ = -0.00000002
 On Iteration in Bisection 23
 a: -0.00000  b:-0.00000

 -0.19859 = (-0.19859 + -0.19859)/2.0
 sum -  nocc_ = 0.00000002
 On Iteration in Bisection 24
 a: 0.00000  b:-0.00000

 -0.19859 = (-0.19859 + -0.19859)/2.0
 sum -  nocc_ = -0.00000000
 ef = -0.19859 sum = 1.00000 

 Iter: 3  T:    20000.000  val:-0.198586  sumni 0.00000
 ne = 1.0000

 iter:4  failiter:4  energy:     -1.379589864677  total:     -1.001606144255  error:     -0.011103325343
 In Bisection function HOMO = -0.449  LUMO =  2.235

 0.89294 = (-0.44918 + 2.23506)/2.0
 sum -  nocc_ = 2.95135240
 On Iteration in Bisection 0
 a: 2.95135  b:-0.49964

 0.22188 = (-0.44918 + 0.89294)/2.0
 sum -  nocc_ = 0.93734125
 On Iteration in Bisection 1
 a: 0.93734  b:-0.49964

 -0.11365 = (-0.44918 + 0.22188)/2.0
 sum -  nocc_ = 0.06210184
 On Iteration in Bisection 2
 a: 0.06210  b:-0.49964

 -0.28142 = (-0.44918 + -0.11365)/2.0
 sum -  nocc_ = -0.06099403
 On Iteration in Bisection 3
 a: -0.06099  b:-0.49964

 -0.19753 = (-0.28142 + -0.11365)/2.0
 sum -  nocc_ = 0.00030113
 On Iteration in Bisection 4
 a: 0.00030  b:-0.06099

 -0.23948 = (-0.28142 + -0.19753)/2.0
 sum -  nocc_ = -0.02542467
 On Iteration in Bisection 5
 a: -0.02542  b:-0.06099

 -0.21850 = (-0.23948 + -0.19753)/2.0
 sum -  nocc_ = -0.01197776
 On Iteration in Bisection 6
 a: -0.01198  b:-0.02542

 -0.20802 = (-0.21850 + -0.19753)/2.0
 sum -  nocc_ = -0.00576795
 On Iteration in Bisection 7
 a: -0.00577  b:-0.01198

 -0.20278 = (-0.20802 + -0.19753)/2.0
 sum -  nocc_ = -0.00272510
 On Iteration in Bisection 8
 a: -0.00273  b:-0.00577

 -0.20016 = (-0.20278 + -0.19753)/2.0
 sum -  nocc_ = -0.00121106
 On Iteration in Bisection 9
 a: -0.00121  b:-0.00273

 -0.19884 = (-0.20016 + -0.19753)/2.0
 sum -  nocc_ = -0.00045488
 On Iteration in Bisection 10
 a: -0.00045  b:-0.00121

 -0.19819 = (-0.19884 + -0.19753)/2.0
 sum -  nocc_ = -0.00007687
 On Iteration in Bisection 11
 a: -0.00008  b:-0.00045

 -0.19786 = (-0.19819 + -0.19753)/2.0
 sum -  nocc_ = 0.00011212
 On Iteration in Bisection 12
 a: 0.00011  b:-0.00008

 -0.19803 = (-0.19819 + -0.19786)/2.0
 sum -  nocc_ = 0.00001763
 On Iteration in Bisection 13
 a: 0.00002  b:-0.00008

 -0.19811 = (-0.19819 + -0.19803)/2.0
 sum -  nocc_ = -0.00002962
 On Iteration in Bisection 14
 a: -0.00003  b:-0.00008

 -0.19807 = (-0.19811 + -0.19803)/2.0
 sum -  nocc_ = -0.00000600
 On Iteration in Bisection 15
 a: -0.00001  b:-0.00003

 -0.19805 = (-0.19807 + -0.19803)/2.0
 sum -  nocc_ = 0.00000581
 On Iteration in Bisection 16
 a: 0.00001  b:-0.00001

 -0.19806 = (-0.19807 + -0.19805)/2.0
 sum -  nocc_ = -0.00000009
 On Iteration in Bisection 17
 a: -0.00000  b:-0.00001

 -0.19805 = (-0.19806 + -0.19805)/2.0
 sum -  nocc_ = 0.00000286
 On Iteration in Bisection 18
 a: 0.00000  b:-0.00000

 -0.19805 = (-0.19806 + -0.19805)/2.0
 sum -  nocc_ = 0.00000138
 On Iteration in Bisection 19
 a: 0.00000  b:-0.00000

 -0.19805 = (-0.19806 + -0.19805)/2.0
 sum -  nocc_ = 0.00000064
 On Iteration in Bisection 20
 a: 0.00000  b:-0.00000

 -0.19806 = (-0.19806 + -0.19805)/2.0
 sum -  nocc_ = 0.00000028
 On Iteration in Bisection 21
 a: 0.00000  b:-0.00000

 -0.19806 = (-0.19806 + -0.19806)/2.0
 sum -  nocc_ = 0.00000009
 On Iteration in Bisection 22
 a: 0.00000  b:-0.00000

 -0.19806 = (-0.19806 + -0.19806)/2.0
 sum -  nocc_ = -0.00000000
 ef = -0.19806 sum = 1.00000 

 Iter: 4  T:    20000.000  val:-0.198056  sumni 0.00000
 ne = 1.0000

 iter:5  failiter:5  energy:     -1.380289688925  total:     -1.002305968503  error:     -0.000699824248
 In Bisection function HOMO = -0.449  LUMO =  2.235

 0.89301 = (-0.44919 + 2.23520)/2.0
 sum -  nocc_ = 2.95134009
 On Iteration in Bisection 0
 a: 2.95134  b:-0.49964

 0.22191 = (-0.44919 + 0.89301)/2.0
 sum -  nocc_ = 0.93722005
 On Iteration in Bisection 1
 a: 0.93722  b:-0.49964

 -0.11364 = (-0.44919 + 0.22191)/2.0
 sum -  nocc_ = 0.06196209
 On Iteration in Bisection 2
 a: 0.06196  b:-0.49964

 -0.28141 = (-0.44919 + -0.11364)/2.0
 sum -  nocc_ = -0.06099704
 On Iteration in Bisection 3
 a: -0.06100  b:-0.49964

 -0.19752 = (-0.28141 + -0.11364)/2.0
 sum -  nocc_ = 0.00026224
 On Iteration in Bisection 4
 a: 0.00026  b:-0.06100

 -0.23947 = (-0.28141 + -0.19752)/2.0
 sum -  nocc_ = -0.02544130
 On Iteration in Bisection 5
 a: -0.02544  b:-0.06100

 -0.21850 = (-0.23947 + -0.19752)/2.0
 sum -  nocc_ = -0.01200410
 On Iteration in Bisection 6
 a: -0.01200  b:-0.02544

 -0.20801 = (-0.21850 + -0.19752)/2.0
 sum -  nocc_ = -0.00580015
 On Iteration in Bisection 7
 a: -0.00580  b:-0.01200

 -0.20277 = (-0.20801 + -0.19752)/2.0
 sum -  nocc_ = -0.00276053
 On Iteration in Bisection 8
 a: -0.00276  b:-0.00580

 -0.20015 = (-0.20277 + -0.19752)/2.0
 sum -  nocc_ = -0.00124819
 On Iteration in Bisection 9
 a: -0.00125  b:-0.00276

 -0.19884 = (-0.20015 + -0.19752)/2.0
 sum -  nocc_ = -0.00049288
 On Iteration in Bisection 10
 a: -0.00049  b:-0.00125

 -0.19818 = (-0.19884 + -0.19752)/2.0
 sum -  nocc_ = -0.00011532
 On Iteration in Bisection 11
 a: -0.00012  b:-0.00049

 -0.19785 = (-0.19818 + -0.19752)/2.0
 sum -  nocc_ = 0.00007346
 On Iteration in Bisection 12
 a: 0.00007  b:-0.00012

 -0.19802 = (-0.19818 + -0.19785)/2.0
 sum -  nocc_ = -0.00002093
 On Iteration in Bisection 13
 a: -0.00002  b:-0.00012

 -0.19793 = (-0.19802 + -0.19785)/2.0
 sum -  nocc_ = 0.00002627
 On Iteration in Bisection 14
 a: 0.00003  b:-0.00002

 -0.19798 = (-0.19802 + -0.19793)/2.0
 sum -  nocc_ = 0.00000267
 On Iteration in Bisection 15
 a: 0.00000  b:-0.00002

 -0.19800 = (-0.19802 + -0.19798)/2.0
 sum -  nocc_ = -0.00000913
 On Iteration in Bisection 16
 a: -0.00001  b:-0.00002

 -0.19799 = (-0.19800 + -0.19798)/2.0
 sum -  nocc_ = -0.00000323
 On Iteration in Bisection 17
 a: -0.00000  b:-0.00001

 -0.19798 = (-0.19799 + -0.19798)/2.0
 sum -  nocc_ = -0.00000028
 On Iteration in Bisection 18
 a: -0.00000  b:-0.00000

 -0.19798 = (-0.19798 + -0.19798)/2.0
 sum -  nocc_ = 0.00000119
 On Iteration in Bisection 19
 a: 0.00000  b:-0.00000

 -0.19798 = (-0.19798 + -0.19798)/2.0
 sum -  nocc_ = 0.00000046
 On Iteration in Bisection 20
 a: 0.00000  b:-0.00000

 -0.19798 = (-0.19798 + -0.19798)/2.0
 sum -  nocc_ = 0.00000009
 On Iteration in Bisection 21
 a: 0.00000  b:-0.00000

 -0.19798 = (-0.19798 + -0.19798)/2.0
 sum -  nocc_ = -0.00000010
 On Iteration in Bisection 22
 a: -0.00000  b:-0.00000

 -0.19798 = (-0.19798 + -0.19798)/2.0
 sum -  nocc_ = -0.00000000
 ef = -0.19798 sum = 1.00000 

 Iter: 5  T:    20000.000  val:-0.197980  sumni 0.00000
 ne = 1.0000

 iter:6  failiter:6  energy:     -1.380319645127  total:     -1.002335924705  error:     -0.000029956202
 In Bisection function HOMO = -0.449  LUMO =  2.235

 0.89302 = (-0.44918 + 2.23522)/2.0
 sum -  nocc_ = 2.95134058
 On Iteration in Bisection 0
 a: 2.95134  b:-0.49964

 0.22192 = (-0.44918 + 0.89302)/2.0
 sum -  nocc_ = 0.93721053
 On Iteration in Bisection 1
 a: 0.93721  b:-0.49964

 -0.11363 = (-0.44918 + 0.22192)/2.0
 sum -  nocc_ = 0.06195058
 On Iteration in Bisection 2
 a: 0.06195  b:-0.49964

 -0.28141 = (-0.44918 + -0.11363)/2.0
 sum -  nocc_ = -0.06099708
 On Iteration in Bisection 3
 a: -0.06100  b:-0.49964

 -0.19752 = (-0.28141 + -0.11363)/2.0
 sum -  nocc_ = 0.00025909
 On Iteration in Bisection 4
 a: 0.00026  b:-0.06100

 -0.23946 = (-0.28141 + -0.19752)/2.0
 sum -  nocc_ = -0.02544254
 On Iteration in Bisection 5
 a: -0.02544  b:-0.06100

 -0.21849 = (-0.23946 + -0.19752)/2.0
 sum -  nocc_ = -0.01200618
 On Iteration in Bisection 6
 a: -0.01201  b:-0.02544

 -0.20800 = (-0.21849 + -0.19752)/2.0
 sum -  nocc_ = -0.00580273
 On Iteration in Bisection 7
 a: -0.00580  b:-0.01201

 -0.20276 = (-0.20800 + -0.19752)/2.0
 sum -  nocc_ = -0.00276339
 On Iteration in Bisection 8
 a: -0.00276  b:-0.00580

 -0.20014 = (-0.20276 + -0.19752)/2.0
 sum -  nocc_ = -0.00125119
 On Iteration in Bisection 9
 a: -0.00125  b:-0.00276

 -0.19883 = (-0.20014 + -0.19752)/2.0
 sum -  nocc_ = -0.00049596
 On Iteration in Bisection 10
 a: -0.00050  b:-0.00125

 -0.19817 = (-0.19883 + -0.19752)/2.0
 sum -  nocc_ = -0.00011843
 On Iteration in Bisection 11
 a: -0.00012  b:-0.00050

 -0.19785 = (-0.19817 + -0.19752)/2.0
 sum -  nocc_ = 0.00007033
 On Iteration in Bisection 12
 a: 0.00007  b:-0.00012

 -0.19801 = (-0.19817 + -0.19785)/2.0
 sum -  nocc_ = -0.00002405
 On Iteration in Bisection 13
 a: -0.00002  b:-0.00012

 -0.19793 = (-0.19801 + -0.19785)/2.0
 sum -  nocc_ = 0.00002314
 On Iteration in Bisection 14
 a: 0.00002  b:-0.00002

 -0.19797 = (-0.19801 + -0.19793)/2.0
 sum -  nocc_ = -0.00000045
 On Iteration in Bisection 15
 a: -0.00000  b:-0.00002

 -0.19795 = (-0.19797 + -0.19793)/2.0
 sum -  nocc_ = 0.00001135
 On Iteration in Bisection 16
 a: 0.00001  b:-0.00000

 -0.19796 = (-0.19797 + -0.19795)/2.0
 sum -  nocc_ = 0.00000545
 On Iteration in Bisection 17
 a: 0.00001  b:-0.00000

 -0.19796 = (-0.19797 + -0.19796)/2.0
 sum -  nocc_ = 0.00000250
 On Iteration in Bisection 18
 a: 0.00000  b:-0.00000

 -0.19797 = (-0.19797 + -0.19796)/2.0
 sum -  nocc_ = 0.00000102
 On Iteration in Bisection 19
 a: 0.00000  b:-0.00000

 -0.19797 = (-0.19797 + -0.19797)/2.0
 sum -  nocc_ = 0.00000028
 On Iteration in Bisection 20
 a: 0.00000  b:-0.00000

 -0.19797 = (-0.19797 + -0.19797)/2.0
 sum -  nocc_ = -0.00000008
 On Iteration in Bisection 21
 a: -0.00000  b:-0.00000

 -0.19797 = (-0.19797 + -0.19797)/2.0
 sum -  nocc_ = 0.00000010
 On Iteration in Bisection 22
 a: 0.00000  b:-0.00000

 -0.19797 = (-0.19797 + -0.19797)/2.0
 sum -  nocc_ = 0.00000001
 ef = -0.19797 sum = 1.00000 

 Iter: 6  T:    20000.000  val:-0.197969  sumni 0.00000
 ne = 1.0000

 iter:7  failiter:7  energy:     -1.380318192670  total:     -1.002334472249  error:      0.000001452457
 In Bisection function HOMO = -0.449  LUMO =  2.235

 0.89302 = (-0.44918 + 2.23523)/2.0
 sum -  nocc_ = 2.95134084
 On Iteration in Bisection 0
 a: 2.95134  b:-0.49964

 0.22192 = (-0.44918 + 0.89302)/2.0
 sum -  nocc_ = 0.93720978
 On Iteration in Bisection 1
 a: 0.93721  b:-0.49964

 -0.11363 = (-0.44918 + 0.22192)/2.0
 sum -  nocc_ = 0.06194958
 On Iteration in Bisection 2
 a: 0.06195  b:-0.49964

 -0.28141 = (-0.44918 + -0.11363)/2.0
 sum -  nocc_ = -0.06099705
 On Iteration in Bisection 3
 a: -0.06100  b:-0.49964

 -0.19752 = (-0.28141 + -0.11363)/2.0
 sum -  nocc_ = 0.00025883
 On Iteration in Bisection 4
 a: 0.00026  b:-0.06100

 -0.23946 = (-0.28141 + -0.19752)/2.0
 sum -  nocc_ = -0.02544263
 On Iteration in Bisection 5
 a: -0.02544  b:-0.06100

 -0.21849 = (-0.23946 + -0.19752)/2.0
 sum -  nocc_ = -0.01200634
 On Iteration in Bisection 6
 a: -0.01201  b:-0.02544

 -0.20800 = (-0.21849 + -0.19752)/2.0
 sum -  nocc_ = -0.00580294
 On Iteration in Bisection 7
 a: -0.00580  b:-0.01201

 -0.20276 = (-0.20800 + -0.19752)/2.0
 sum -  nocc_ = -0.00276362
 On Iteration in Bisection 8
 a: -0.00276  b:-0.00580

 -0.20014 = (-0.20276 + -0.19752)/2.0
 sum -  nocc_ = -0.00125144
 On Iteration in Bisection 9
 a: -0.00125  b:-0.00276

 -0.19883 = (-0.20014 + -0.19752)/2.0
 sum -  nocc_ = -0.00049621
 On Iteration in Bisection 10
 a: -0.00050  b:-0.00125

 -0.19817 = (-0.19883 + -0.19752)/2.0
 sum -  nocc_ = -0.00011869
 On Iteration in Bisection 11
 a: -0.00012  b:-0.00050

 -0.19785 = (-0.19817 + -0.19752)/2.0
 sum -  nocc_ = 0.00007007
 On Iteration in Bisection 12
 a: 0.00007  b:-0.00012

 -0.19801 = (-0.19817 + -0.19785)/2.0
 sum -  nocc_ = -0.00002431
 On Iteration in Bisection 13
 a: -0.00002  b:-0.00012

 -0.19793 = (-0.19801 + -0.19785)/2.0
 sum -  nocc_ = 0.00002288
 On Iteration in Bisection 14
 a: 0.00002  b:-0.00002

 -0.19797 = (-0.19801 + -0.19793)/2.0
 sum -  nocc_ = -0.00000071
 On Iteration in Bisection 15
 a: -0.00000  b:-0.00002

 -0.19795 = (-0.19797 + -0.19793)/2.0
 sum -  nocc_ = 0.00001108
 On Iteration in Bisection 16
 a: 0.00001  b:-0.00000

 -0.19796 = (-0.19797 + -0.19795)/2.0
 sum -  nocc_ = 0.00000519
 On Iteration in Bisection 17
 a: 0.00001  b:-0.00000

 -0.19796 = (-0.19797 + -0.19796)/2.0
 sum -  nocc_ = 0.00000224
 On Iteration in Bisection 18
 a: 0.00000  b:-0.00000

 -0.19797 = (-0.19797 + -0.19796)/2.0
 sum -  nocc_ = 0.00000076
 On Iteration in Bisection 19
 a: 0.00000  b:-0.00000

 -0.19797 = (-0.19797 + -0.19797)/2.0
 sum -  nocc_ = 0.00000002
 On Iteration in Bisection 20
 a: 0.00000  b:-0.00000

 -0.19797 = (-0.19797 + -0.19797)/2.0
 sum -  nocc_ = -0.00000034
 On Iteration in Bisection 21
 a: -0.00000  b:-0.00000

 -0.19797 = (-0.19797 + -0.19797)/2.0
 sum -  nocc_ = -0.00000016
 On Iteration in Bisection 22
 a: -0.00000  b:-0.00000

 -0.19797 = (-0.19797 + -0.19797)/2.0
 sum -  nocc_ = -0.00000007
 On Iteration in Bisection 23
 a: -0.00000  b:-0.00000

 -0.19797 = (-0.19797 + -0.19797)/2.0
 sum -  nocc_ = -0.00000002
 On Iteration in Bisection 24
 a: -0.00000  b:-0.00000

 -0.19797 = (-0.19797 + -0.19797)/2.0
 sum -  nocc_ = 0.00000000
 ef = -0.19797 sum = 1.00000 

 Iter: 7  T:    20000.000  val:-0.197967  sumni 0.00000
 ne = 1.0000

 iter:8  failiter:8  energy:     -1.380317477919  total:     -1.002333757497  error:      0.000000714752
 In Bisection function HOMO = -0.449  LUMO =  2.235

 0.89302 = (-0.44918 + 2.23523)/2.0
 sum -  nocc_ = 2.95134089
 On Iteration in Bisection 0
 a: 2.95134  b:-0.49964

 0.22192 = (-0.44918 + 0.89302)/2.0
 sum -  nocc_ = 0.93720972
 On Iteration in Bisection 1
 a: 0.93721  b:-0.49964

 -0.11363 = (-0.44918 + 0.22192)/2.0
 sum -  nocc_ = 0.06194949
 On Iteration in Bisection 2
 a: 0.06195  b:-0.49964

 -0.28141 = (-0.44918 + -0.11363)/2.0
 sum -  nocc_ = -0.06099705
 On Iteration in Bisection 3
 a: -0.06100  b:-0.49964

 -0.19752 = (-0.28141 + -0.11363)/2.0
 sum -  nocc_ = 0.00025881
 On Iteration in Bisection 4
 a: 0.00026  b:-0.06100

 -0.23946 = (-0.28141 + -0.19752)/2.0
 sum -  nocc_ = -0.02544263
 On Iteration in Bisection 5
 a: -0.02544  b:-0.06100

 -0.21849 = (-0.23946 + -0.19752)/2.0
 sum -  nocc_ = -0.01200636
 On Iteration in Bisection 6
 a: -0.01201  b:-0.02544

 -0.20800 = (-0.21849 + -0.19752)/2.0
 sum -  nocc_ = -0.00580296
 On Iteration in Bisection 7
 a: -0.00580  b:-0.01201

 -0.20276 = (-0.20800 + -0.19752)/2.0
 sum -  nocc_ = -0.00276364
 On Iteration in Bisection 8
 a: -0.00276  b:-0.00580

 -0.20014 = (-0.20276 + -0.19752)/2.0
 sum -  nocc_ = -0.00125146
 On Iteration in Bisection 9
 a: -0.00125  b:-0.00276

 -0.19883 = (-0.20014 + -0.19752)/2.0
 sum -  nocc_ = -0.00049623
 On Iteration in Bisection 10
 a: -0.00050  b:-0.00125

 -0.19817 = (-0.19883 + -0.19752)/2.0
 sum -  nocc_ = -0.00011871
 On Iteration in Bisection 11
 a: -0.00012  b:-0.00050

 -0.19785 = (-0.19817 + -0.19752)/2.0
 sum -  nocc_ = 0.00007005
 On Iteration in Bisection 12
 a: 0.00007  b:-0.00012

 -0.19801 = (-0.19817 + -0.19785)/2.0
 sum -  nocc_ = -0.00002433
 On Iteration in Bisection 13
 a: -0.00002  b:-0.00012

 -0.19793 = (-0.19801 + -0.19785)/2.0
 sum -  nocc_ = 0.00002286
 On Iteration in Bisection 14
 a: 0.00002  b:-0.00002

 -0.19797 = (-0.19801 + -0.19793)/2.0
 sum -  nocc_ = -0.00000074
 On Iteration in Bisection 15
 a: -0.00000  b:-0.00002

 -0.19795 = (-0.19797 + -0.19793)/2.0
 sum -  nocc_ = 0.00001106
 On Iteration in Bisection 16
 a: 0.00001  b:-0.00000

 -0.19796 = (-0.19797 + -0.19795)/2.0
 sum -  nocc_ = 0.00000516
 On Iteration in Bisection 17
 a: 0.00001  b:-0.00000

 -0.19796 = (-0.19797 + -0.19796)/2.0
 sum -  nocc_ = 0.00000221
 On Iteration in Bisection 18
 a: 0.00000  b:-0.00000

 -0.19797 = (-0.19797 + -0.19796)/2.0
 sum -  nocc_ = 0.00000074
 On Iteration in Bisection 19
 a: 0.00000  b:-0.00000

 -0.19797 = (-0.19797 + -0.19797)/2.0
 sum -  nocc_ = 0.00000000
 ef = -0.19797 sum = 1.00000 

 Iter: 8  T:    20000.000  val:-0.197967  sumni 0.00000
 ne = 1.0000

 iter:9  failiter:9  energy:     -1.380317336344  total:     -1.002333615922  error:      0.000000141575
 In Bisection function HOMO = -0.449  LUMO =  2.235

 0.89302 = (-0.44918 + 2.23523)/2.0
 sum -  nocc_ = 2.95134090
 On Iteration in Bisection 0
 a: 2.95134  b:-0.49964

 0.22192 = (-0.44918 + 0.89302)/2.0
 sum -  nocc_ = 0.93720972
 On Iteration in Bisection 1
 a: 0.93721  b:-0.49964

 -0.11363 = (-0.44918 + 0.22192)/2.0
 sum -  nocc_ = 0.06194948
 On Iteration in Bisection 2
 a: 0.06195  b:-0.49964

 -0.28141 = (-0.44918 + -0.11363)/2.0
 sum -  nocc_ = -0.06099704
 On Iteration in Bisection 3
 a: -0.06100  b:-0.49964

 -0.19752 = (-0.28141 + -0.11363)/2.0
 sum -  nocc_ = 0.00025880
 On Iteration in Bisection 4
 a: 0.00026  b:-0.06100

 -0.23946 = (-0.28141 + -0.19752)/2.0
 sum -  nocc_ = -0.02544263
 On Iteration in Bisection 5
 a: -0.02544  b:-0.06100

 -0.21849 = (-0.23946 + -0.19752)/2.0
 sum -  nocc_ = -0.01200636
 On Iteration in Bisection 6
 a: -0.01201  b:-0.02544

 -0.20800 = (-0.21849 + -0.19752)/2.0
 sum -  nocc_ = -0.00580296
 On Iteration in Bisection 7
 a: -0.00580  b:-0.01201

 -0.20276 = (-0.20800 + -0.19752)/2.0
 sum -  nocc_ = -0.00276364
 On Iteration in Bisection 8
 a: -0.00276  b:-0.00580

 -0.20014 = (-0.20276 + -0.19752)/2.0
 sum -  nocc_ = -0.00125147
 On Iteration in Bisection 9
 a: -0.00125  b:-0.00276

 -0.19883 = (-0.20014 + -0.19752)/2.0
 sum -  nocc_ = -0.00049624
 On Iteration in Bisection 10
 a: -0.00050  b:-0.00125

 -0.19817 = (-0.19883 + -0.19752)/2.0
 sum -  nocc_ = -0.00011871
 On Iteration in Bisection 11
 a: -0.00012  b:-0.00050

 -0.19785 = (-0.19817 + -0.19752)/2.0
 sum -  nocc_ = 0.00007005
 On Iteration in Bisection 12
 a: 0.00007  b:-0.00012

 -0.19801 = (-0.19817 + -0.19785)/2.0
 sum -  nocc_ = -0.00002433
 On Iteration in Bisection 13
 a: -0.00002  b:-0.00012

 -0.19793 = (-0.19801 + -0.19785)/2.0
 sum -  nocc_ = 0.00002286
 On Iteration in Bisection 14
 a: 0.00002  b:-0.00002

 -0.19797 = (-0.19801 + -0.19793)/2.0
 sum -  nocc_ = -0.00000074
 On Iteration in Bisection 15
 a: -0.00000  b:-0.00002

 -0.19795 = (-0.19797 + -0.19793)/2.0
 sum -  nocc_ = 0.00001106
 On Iteration in Bisection 16
 a: 0.00001  b:-0.00000

 -0.19796 = (-0.19797 + -0.19795)/2.0
 sum -  nocc_ = 0.00000516
 On Iteration in Bisection 17
 a: 0.00001  b:-0.00000

 -0.19796 = (-0.19797 + -0.19796)/2.0
 sum -  nocc_ = 0.00000221
 On Iteration in Bisection 18
 a: 0.00000  b:-0.00000

 -0.19797 = (-0.19797 + -0.19796)/2.0
 sum -  nocc_ = 0.00000074
 On Iteration in Bisection 19
 a: 0.00000  b:-0.00000

 -0.19797 = (-0.19797 + -0.19797)/2.0
 sum -  nocc_ = -0.00000000
 ef = -0.19797 sum = 1.00000 

 Iter: 9  T:    20000.000  val:-0.197967  sumni 0.00000
 ne = 1.0000

 iter:10  failiter:10  energy:     -1.380317308206  total:     -1.002333587785  error:      0.000000028137
 In Bisection function HOMO = -0.449  LUMO =  2.235

 0.89302 = (-0.44918 + 2.23523)/2.0
 sum -  nocc_ = 2.95134090
 On Iteration in Bisection 0
 a: 2.95134  b:-0.49964

 0.22192 = (-0.44918 + 0.89302)/2.0
 sum -  nocc_ = 0.93720972
 On Iteration in Bisection 1
 a: 0.93721  b:-0.49964

 -0.11363 = (-0.44918 + 0.22192)/2.0
 sum -  nocc_ = 0.06194948
 On Iteration in Bisection 2
 a: 0.06195  b:-0.49964

 -0.28141 = (-0.44918 + -0.11363)/2.0
 sum -  nocc_ = -0.06099704
 On Iteration in Bisection 3
 a: -0.06100  b:-0.49964

 -0.19752 = (-0.28141 + -0.11363)/2.0
 sum -  nocc_ = 0.00025880
 On Iteration in Bisection 4
 a: 0.00026  b:-0.06100

 -0.23946 = (-0.28141 + -0.19752)/2.0
 sum -  nocc_ = -0.02544263
 On Iteration in Bisection 5
 a: -0.02544  b:-0.06100

 -0.21849 = (-0.23946 + -0.19752)/2.0
 sum -  nocc_ = -0.01200636
 On Iteration in Bisection 6
 a: -0.01201  b:-0.02544

 -0.20800 = (-0.21849 + -0.19752)/2.0
 sum -  nocc_ = -0.00580296
 On Iteration in Bisection 7
 a: -0.00580  b:-0.01201

 -0.20276 = (-0.20800 + -0.19752)/2.0
 sum -  nocc_ = -0.00276364
 On Iteration in Bisection 8
 a: -0.00276  b:-0.00580

 -0.20014 = (-0.20276 + -0.19752)/2.0
 sum -  nocc_ = -0.00125147
 On Iteration in Bisection 9
 a: -0.00125  b:-0.00276

 -0.19883 = (-0.20014 + -0.19752)/2.0
 sum -  nocc_ = -0.00049624
 On Iteration in Bisection 10
 a: -0.00050  b:-0.00125

 -0.19817 = (-0.19883 + -0.19752)/2.0
 sum -  nocc_ = -0.00011871
 On Iteration in Bisection 11
 a: -0.00012  b:-0.00050

 -0.19785 = (-0.19817 + -0.19752)/2.0
 sum -  nocc_ = 0.00007005
 On Iteration in Bisection 12
 a: 0.00007  b:-0.00012

 -0.19801 = (-0.19817 + -0.19785)/2.0
 sum -  nocc_ = -0.00002433
 On Iteration in Bisection 13
 a: -0.00002  b:-0.00012

 -0.19793 = (-0.19801 + -0.19785)/2.0
 sum -  nocc_ = 0.00002286
 On Iteration in Bisection 14
 a: 0.00002  b:-0.00002

 -0.19797 = (-0.19801 + -0.19793)/2.0
 sum -  nocc_ = -0.00000074
 On Iteration in Bisection 15
 a: -0.00000  b:-0.00002

 -0.19795 = (-0.19797 + -0.19793)/2.0
 sum -  nocc_ = 0.00001106
 On Iteration in Bisection 16
 a: 0.00001  b:-0.00000

 -0.19796 = (-0.19797 + -0.19795)/2.0
 sum -  nocc_ = 0.00000516
 On Iteration in Bisection 17
 a: 0.00001  b:-0.00000

 -0.19796 = (-0.19797 + -0.19796)/2.0
 sum -  nocc_ = 0.00000221
 On Iteration in Bisection 18
 a: 0.00000  b:-0.00000

 -0.19797 = (-0.19797 + -0.19796)/2.0
 sum -  nocc_ = 0.00000074
 On Iteration in Bisection 19
 a: 0.00000  b:-0.00000

 -0.19797 = (-0.19797 + -0.19797)/2.0
 sum -  nocc_ = -0.00000000
 ef = -0.19797 sum = 1.00000 

 Iter: 10  T:    20000.000  val:-0.197967  sumni 0.00000
 ne = 1.0000

 iter:11  failiter:11  energy:     -1.380317304885  total:     -1.002333584463  error:      0.000000003321
 In Bisection function HOMO = -0.449  LUMO =  2.235

 0.89302 = (-0.44918 + 2.23523)/2.0
 sum -  nocc_ = 2.95134090
 On Iteration in Bisection 0
 a: 2.95134  b:-0.49964

 0.22192 = (-0.44918 + 0.89302)/2.0
 sum -  nocc_ = 0.93720972
 On Iteration in Bisection 1
 a: 0.93721  b:-0.49964

 -0.11363 = (-0.44918 + 0.22192)/2.0
 sum -  nocc_ = 0.06194948
 On Iteration in Bisection 2
 a: 0.06195  b:-0.49964

 -0.28141 = (-0.44918 + -0.11363)/2.0
 sum -  nocc_ = -0.06099704
 On Iteration in Bisection 3
 a: -0.06100  b:-0.49964

 -0.19752 = (-0.28141 + -0.11363)/2.0
 sum -  nocc_ = 0.00025880
 On Iteration in Bisection 4
 a: 0.00026  b:-0.06100

 -0.23946 = (-0.28141 + -0.19752)/2.0
 sum -  nocc_ = -0.02544263
 On Iteration in Bisection 5
 a: -0.02544  b:-0.06100

 -0.21849 = (-0.23946 + -0.19752)/2.0
 sum -  nocc_ = -0.01200636
 On Iteration in Bisection 6
 a: -0.01201  b:-0.02544

 -0.20800 = (-0.21849 + -0.19752)/2.0
 sum -  nocc_ = -0.00580296
 On Iteration in Bisection 7
 a: -0.00580  b:-0.01201

 -0.20276 = (-0.20800 + -0.19752)/2.0
 sum -  nocc_ = -0.00276364
 On Iteration in Bisection 8
 a: -0.00276  b:-0.00580

 -0.20014 = (-0.20276 + -0.19752)/2.0
 sum -  nocc_ = -0.00125147
 On Iteration in Bisection 9
 a: -0.00125  b:-0.00276

 -0.19883 = (-0.20014 + -0.19752)/2.0
 sum -  nocc_ = -0.00049624
 On Iteration in Bisection 10
 a: -0.00050  b:-0.00125

 -0.19817 = (-0.19883 + -0.19752)/2.0
 sum -  nocc_ = -0.00011871
 On Iteration in Bisection 11
 a: -0.00012  b:-0.00050

 -0.19785 = (-0.19817 + -0.19752)/2.0
 sum -  nocc_ = 0.00007005
 On Iteration in Bisection 12
 a: 0.00007  b:-0.00012

 -0.19801 = (-0.19817 + -0.19785)/2.0
 sum -  nocc_ = -0.00002433
 On Iteration in Bisection 13
 a: -0.00002  b:-0.00012

 -0.19793 = (-0.19801 + -0.19785)/2.0
 sum -  nocc_ = 0.00002286
 On Iteration in Bisection 14
 a: 0.00002  b:-0.00002

 -0.19797 = (-0.19801 + -0.19793)/2.0
 sum -  nocc_ = -0.00000074
 On Iteration in Bisection 15
 a: -0.00000  b:-0.00002

 -0.19795 = (-0.19797 + -0.19793)/2.0
 sum -  nocc_ = 0.00001106
 On Iteration in Bisection 16
 a: 0.00001  b:-0.00000

 -0.19796 = (-0.19797 + -0.19795)/2.0
 sum -  nocc_ = 0.00000516
 On Iteration in Bisection 17
 a: 0.00001  b:-0.00000

 -0.19796 = (-0.19797 + -0.19796)/2.0
 sum -  nocc_ = 0.00000221
 On Iteration in Bisection 18
 a: 0.00000  b:-0.00000

 -0.19797 = (-0.19797 + -0.19796)/2.0
 sum -  nocc_ = 0.00000074
 On Iteration in Bisection 19
 a: 0.00000  b:-0.00000

 -0.19797 = (-0.19797 + -0.19797)/2.0
 sum -  nocc_ = -0.00000000
 ef = -0.19797 sum = 1.00000 

 Iter: 11  T:    20000.000  val:-0.197967  sumni 0.00000
 ne = 1.0000

 iter:12  failiter:12  energy:     -1.380317304259  total:     -1.002333583838  error:      0.000000000626
 In Bisection function HOMO = -0.449  LUMO =  2.235

 0.89302 = (-0.44918 + 2.23523)/2.0
 sum -  nocc_ = 2.95134090
 On Iteration in Bisection 0
 a: 2.95134  b:-0.49964

 0.22192 = (-0.44918 + 0.89302)/2.0
 sum -  nocc_ = 0.93720972
 On Iteration in Bisection 1
 a: 0.93721  b:-0.49964

 -0.11363 = (-0.44918 + 0.22192)/2.0
 sum -  nocc_ = 0.06194948
 On Iteration in Bisection 2
 a: 0.06195  b:-0.49964

 -0.28141 = (-0.44918 + -0.11363)/2.0
 sum -  nocc_ = -0.06099704
 On Iteration in Bisection 3
 a: -0.06100  b:-0.49964

 -0.19752 = (-0.28141 + -0.11363)/2.0
 sum -  nocc_ = 0.00025880
 On Iteration in Bisection 4
 a: 0.00026  b:-0.06100

 -0.23946 = (-0.28141 + -0.19752)/2.0
 sum -  nocc_ = -0.02544263
 On Iteration in Bisection 5
 a: -0.02544  b:-0.06100

 -0.21849 = (-0.23946 + -0.19752)/2.0
 sum -  nocc_ = -0.01200636
 On Iteration in Bisection 6
 a: -0.01201  b:-0.02544

 -0.20800 = (-0.21849 + -0.19752)/2.0
 sum -  nocc_ = -0.00580296
 On Iteration in Bisection 7
 a: -0.00580  b:-0.01201

 -0.20276 = (-0.20800 + -0.19752)/2.0
 sum -  nocc_ = -0.00276364
 On Iteration in Bisection 8
 a: -0.00276  b:-0.00580

 -0.20014 = (-0.20276 + -0.19752)/2.0
 sum -  nocc_ = -0.00125147
 On Iteration in Bisection 9
 a: -0.00125  b:-0.00276

 -0.19883 = (-0.20014 + -0.19752)/2.0
 sum -  nocc_ = -0.00049624
 On Iteration in Bisection 10
 a: -0.00050  b:-0.00125

 -0.19817 = (-0.19883 + -0.19752)/2.0
 sum -  nocc_ = -0.00011871
 On Iteration in Bisection 11
 a: -0.00012  b:-0.00050

 -0.19785 = (-0.19817 + -0.19752)/2.0
 sum -  nocc_ = 0.00007005
 On Iteration in Bisection 12
 a: 0.00007  b:-0.00012

 -0.19801 = (-0.19817 + -0.19785)/2.0
 sum -  nocc_ = -0.00002433
 On Iteration in Bisection 13
 a: -0.00002  b:-0.00012

 -0.19793 = (-0.19801 + -0.19785)/2.0
 sum -  nocc_ = 0.00002286
 On Iteration in Bisection 14
 a: 0.00002  b:-0.00002

 -0.19797 = (-0.19801 + -0.19793)/2.0
 sum -  nocc_ = -0.00000074
 On Iteration in Bisection 15
 a: -0.00000  b:-0.00002

 -0.19795 = (-0.19797 + -0.19793)/2.0
 sum -  nocc_ = 0.00001106
 On Iteration in Bisection 16
 a: 0.00001  b:-0.00000

 -0.19796 = (-0.19797 + -0.19795)/2.0
 sum -  nocc_ = 0.00000516
 On Iteration in Bisection 17
 a: 0.00001  b:-0.00000

 -0.19796 = (-0.19797 + -0.19796)/2.0
 sum -  nocc_ = 0.00000221
 On Iteration in Bisection 18
 a: 0.00000  b:-0.00000

 -0.19797 = (-0.19797 + -0.19796)/2.0
 sum -  nocc_ = 0.00000074
 On Iteration in Bisection 19
 a: 0.00000  b:-0.00000

 -0.19797 = (-0.19797 + -0.19797)/2.0
 sum -  nocc_ = -0.00000000
 ef = -0.19797 sum = 1.00000 

 Iter: 12  T:    20000.000  val:-0.197967  sumni 0.00000
 ne = 1.0000

 iter:13  failiter:13  energy:     -1.380317304142  total:     -1.002333583720  error:      0.000000000117
 In Bisection function HOMO = -0.449  LUMO =  2.235

 0.89302 = (-0.44918 + 2.23523)/2.0
 sum -  nocc_ = 2.95134090
 On Iteration in Bisection 0
 a: 2.95134  b:-0.49964

 0.22192 = (-0.44918 + 0.89302)/2.0
 sum -  nocc_ = 0.93720972
 On Iteration in Bisection 1
 a: 0.93721  b:-0.49964

 -0.11363 = (-0.44918 + 0.22192)/2.0
 sum -  nocc_ = 0.06194948
 On Iteration in Bisection 2
 a: 0.06195  b:-0.49964

 -0.28141 = (-0.44918 + -0.11363)/2.0
 sum -  nocc_ = -0.06099704
 On Iteration in Bisection 3
 a: -0.06100  b:-0.49964

 -0.19752 = (-0.28141 + -0.11363)/2.0
 sum -  nocc_ = 0.00025880
 On Iteration in Bisection 4
 a: 0.00026  b:-0.06100

 -0.23946 = (-0.28141 + -0.19752)/2.0
 sum -  nocc_ = -0.02544263
 On Iteration in Bisection 5
 a: -0.02544  b:-0.06100

 -0.21849 = (-0.23946 + -0.19752)/2.0
 sum -  nocc_ = -0.01200636
 On Iteration in Bisection 6
 a: -0.01201  b:-0.02544

 -0.20800 = (-0.21849 + -0.19752)/2.0
 sum -  nocc_ = -0.00580296
 On Iteration in Bisection 7
 a: -0.00580  b:-0.01201

 -0.20276 = (-0.20800 + -0.19752)/2.0
 sum -  nocc_ = -0.00276364
 On Iteration in Bisection 8
 a: -0.00276  b:-0.00580

 -0.20014 = (-0.20276 + -0.19752)/2.0
 sum -  nocc_ = -0.00125147
 On Iteration in Bisection 9
 a: -0.00125  b:-0.00276

 -0.19883 = (-0.20014 + -0.19752)/2.0
 sum -  nocc_ = -0.00049624
 On Iteration in Bisection 10
 a: -0.00050  b:-0.00125

 -0.19817 = (-0.19883 + -0.19752)/2.0
 sum -  nocc_ = -0.00011871
 On Iteration in Bisection 11
 a: -0.00012  b:-0.00050

 -0.19785 = (-0.19817 + -0.19752)/2.0
 sum -  nocc_ = 0.00007005
 On Iteration in Bisection 12
 a: 0.00007  b:-0.00012

 -0.19801 = (-0.19817 + -0.19785)/2.0
 sum -  nocc_ = -0.00002433
 On Iteration in Bisection 13
 a: -0.00002  b:-0.00012

 -0.19793 = (-0.19801 + -0.19785)/2.0
 sum -  nocc_ = 0.00002286
 On Iteration in Bisection 14
 a: 0.00002  b:-0.00002

 -0.19797 = (-0.19801 + -0.19793)/2.0
 sum -  nocc_ = -0.00000074
 On Iteration in Bisection 15
 a: -0.00000  b:-0.00002

 -0.19795 = (-0.19797 + -0.19793)/2.0
 sum -  nocc_ = 0.00001106
 On Iteration in Bisection 16
 a: 0.00001  b:-0.00000

 -0.19796 = (-0.19797 + -0.19795)/2.0
 sum -  nocc_ = 0.00000516
 On Iteration in Bisection 17
 a: 0.00001  b:-0.00000

 -0.19796 = (-0.19797 + -0.19796)/2.0
 sum -  nocc_ = 0.00000221
 On Iteration in Bisection 18
 a: 0.00000  b:-0.00000

 -0.19797 = (-0.19797 + -0.19796)/2.0
 sum -  nocc_ = 0.00000074
 On Iteration in Bisection 19
 a: 0.00000  b:-0.00000

 -0.19797 = (-0.19797 + -0.19797)/2.0
 sum -  nocc_ = -0.00000000
 ef = -0.19797 sum = 1.00000 

 Iter: 13  T:    20000.000  val:-0.197967  sumni 0.00000
 ne = 1.0000

 iter:14  failiter:14  energy:     -1.380317304121  total:     -1.002333583699  error:      0.000000000021
 In Bisection function HOMO = -0.449  LUMO =  2.235

 0.89302 = (-0.44918 + 2.23523)/2.0
 sum -  nocc_ = 2.95134090
 On Iteration in Bisection 0
 a: 2.95134  b:-0.49964

 0.22192 = (-0.44918 + 0.89302)/2.0
 sum -  nocc_ = 0.93720972
 On Iteration in Bisection 1
 a: 0.93721  b:-0.49964

 -0.11363 = (-0.44918 + 0.22192)/2.0
 sum -  nocc_ = 0.06194948
 On Iteration in Bisection 2
 a: 0.06195  b:-0.49964

 -0.28141 = (-0.44918 + -0.11363)/2.0
 sum -  nocc_ = -0.06099704
 On Iteration in Bisection 3
 a: -0.06100  b:-0.49964

 -0.19752 = (-0.28141 + -0.11363)/2.0
 sum -  nocc_ = 0.00025880
 On Iteration in Bisection 4
 a: 0.00026  b:-0.06100

 -0.23946 = (-0.28141 + -0.19752)/2.0
 sum -  nocc_ = -0.02544263
 On Iteration in Bisection 5
 a: -0.02544  b:-0.06100

 -0.21849 = (-0.23946 + -0.19752)/2.0
 sum -  nocc_ = -0.01200636
 On Iteration in Bisection 6
 a: -0.01201  b:-0.02544

 -0.20800 = (-0.21849 + -0.19752)/2.0
 sum -  nocc_ = -0.00580296
 On Iteration in Bisection 7
 a: -0.00580  b:-0.01201

 -0.20276 = (-0.20800 + -0.19752)/2.0
 sum -  nocc_ = -0.00276364
 On Iteration in Bisection 8
 a: -0.00276  b:-0.00580

 -0.20014 = (-0.20276 + -0.19752)/2.0
 sum -  nocc_ = -0.00125147
 On Iteration in Bisection 9
 a: -0.00125  b:-0.00276

 -0.19883 = (-0.20014 + -0.19752)/2.0
 sum -  nocc_ = -0.00049624
 On Iteration in Bisection 10
 a: -0.00050  b:-0.00125

 -0.19817 = (-0.19883 + -0.19752)/2.0
 sum -  nocc_ = -0.00011871
 On Iteration in Bisection 11
 a: -0.00012  b:-0.00050

 -0.19785 = (-0.19817 + -0.19752)/2.0
 sum -  nocc_ = 0.00007005
 On Iteration in Bisection 12
 a: 0.00007  b:-0.00012

 -0.19801 = (-0.19817 + -0.19785)/2.0
 sum -  nocc_ = -0.00002433
 On Iteration in Bisection 13
 a: -0.00002  b:-0.00012

 -0.19793 = (-0.19801 + -0.19785)/2.0
 sum -  nocc_ = 0.00002286
 On Iteration in Bisection 14
 a: 0.00002  b:-0.00002

 -0.19797 = (-0.19801 + -0.19793)/2.0
 sum -  nocc_ = -0.00000074
 On Iteration in Bisection 15
 a: -0.00000  b:-0.00002

 -0.19795 = (-0.19797 + -0.19793)/2.0
 sum -  nocc_ = 0.00001106
 On Iteration in Bisection 16
 a: 0.00001  b:-0.00000

 -0.19796 = (-0.19797 + -0.19795)/2.0
 sum -  nocc_ = 0.00000516
 On Iteration in Bisection 17
 a: 0.00001  b:-0.00000

 -0.19796 = (-0.19797 + -0.19796)/2.0
 sum -  nocc_ = 0.00000221
 On Iteration in Bisection 18
 a: 0.00000  b:-0.00000

 -0.19797 = (-0.19797 + -0.19796)/2.0
 sum -  nocc_ = 0.00000074
 On Iteration in Bisection 19
 a: 0.00000  b:-0.00000

 -0.19797 = (-0.19797 + -0.19797)/2.0
 sum -  nocc_ = -0.00000000
 ef = -0.19797 sum = 1.00000 

 Iter: 14  T:    20000.000  val:-0.197967  sumni 0.00000
 ne = 1.0000

 iter:15  failiter:15  energy:     -1.380317304117  total:     -1.002333583695  error:      0.000000000004
 In Bisection function HOMO = -0.449  LUMO =  2.235

 0.89302 = (-0.44918 + 2.23523)/2.0
 sum -  nocc_ = 2.95134090
 On Iteration in Bisection 0
 a: 2.95134  b:-0.49964

 0.22192 = (-0.44918 + 0.89302)/2.0
 sum -  nocc_ = 0.93720972
 On Iteration in Bisection 1
 a: 0.93721  b:-0.49964

 -0.11363 = (-0.44918 + 0.22192)/2.0
 sum -  nocc_ = 0.06194948
 On Iteration in Bisection 2
 a: 0.06195  b:-0.49964

 -0.28141 = (-0.44918 + -0.11363)/2.0
 sum -  nocc_ = -0.06099704
 On Iteration in Bisection 3
 a: -0.06100  b:-0.49964

 -0.19752 = (-0.28141 + -0.11363)/2.0
 sum -  nocc_ = 0.00025880
 On Iteration in Bisection 4
 a: 0.00026  b:-0.06100

 -0.23946 = (-0.28141 + -0.19752)/2.0
 sum -  nocc_ = -0.02544263
 On Iteration in Bisection 5
 a: -0.02544  b:-0.06100

 -0.21849 = (-0.23946 + -0.19752)/2.0
 sum -  nocc_ = -0.01200636
 On Iteration in Bisection 6
 a: -0.01201  b:-0.02544

 -0.20800 = (-0.21849 + -0.19752)/2.0
 sum -  nocc_ = -0.00580296
 On Iteration in Bisection 7
 a: -0.00580  b:-0.01201

 -0.20276 = (-0.20800 + -0.19752)/2.0
 sum -  nocc_ = -0.00276364
 On Iteration in Bisection 8
 a: -0.00276  b:-0.00580

 -0.20014 = (-0.20276 + -0.19752)/2.0
 sum -  nocc_ = -0.00125147
 On Iteration in Bisection 9
 a: -0.00125  b:-0.00276

 -0.19883 = (-0.20014 + -0.19752)/2.0
 sum -  nocc_ = -0.00049624
 On Iteration in Bisection 10
 a: -0.00050  b:-0.00125

 -0.19817 = (-0.19883 + -0.19752)/2.0
 sum -  nocc_ = -0.00011871
 On Iteration in Bisection 11
 a: -0.00012  b:-0.00050

 -0.19785 = (-0.19817 + -0.19752)/2.0
 sum -  nocc_ = 0.00007005
 On Iteration in Bisection 12
 a: 0.00007  b:-0.00012

 -0.19801 = (-0.19817 + -0.19785)/2.0
 sum -  nocc_ = -0.00002433
 On Iteration in Bisection 13
 a: -0.00002  b:-0.00012

 -0.19793 = (-0.19801 + -0.19785)/2.0
 sum -  nocc_ = 0.00002286
 On Iteration in Bisection 14
 a: 0.00002  b:-0.00002

 -0.19797 = (-0.19801 + -0.19793)/2.0
 sum -  nocc_ = -0.00000074
 On Iteration in Bisection 15
 a: -0.00000  b:-0.00002

 -0.19795 = (-0.19797 + -0.19793)/2.0
 sum -  nocc_ = 0.00001106
 On Iteration in Bisection 16
 a: 0.00001  b:-0.00000

 -0.19796 = (-0.19797 + -0.19795)/2.0
 sum -  nocc_ = 0.00000516
 On Iteration in Bisection 17
 a: 0.00001  b:-0.00000

 -0.19796 = (-0.19797 + -0.19796)/2.0
 sum -  nocc_ = 0.00000221
 On Iteration in Bisection 18
 a: 0.00000  b:-0.00000

 -0.19797 = (-0.19797 + -0.19796)/2.0
 sum -  nocc_ = 0.00000074
 On Iteration in Bisection 19
 a: 0.00000  b:-0.00000

 -0.19797 = (-0.19797 + -0.19797)/2.0
 sum -  nocc_ = -0.00000000
 ef = -0.19797 sum = 1.00000 

 Iter: 15  T:    20000.000  val:-0.197967  sumni 0.00000
 ne = 1.0000

 iter:16  failiter:16  energy:     -1.380317304116  total:     -1.002333583695  error:      0.000000000001
 FTHFEnergy =    -1.002334
 FD_dis[0] = 0.98141400 with -0.449180 eig value
 FD_dis[1] = 0.01858280 with 0.053258 eig value
 FD_dis[2] = 0.00000235 with 0.622991 eig value
 FD_dis[3] = 0.00000085 with 0.687152 eig value
 FD_dis[4] = 0.00000000 with 1.318506 eig value
 FD_dis[5] = 0.00000000 with 1.357651 eig value
 FD_dis[6] = 0.00000000 with 1.357651 eig value
 FD_dis[7] = 0.00000000 with 1.654160 eig value
 FD_dis[8] = 0.00000000 with 1.654160 eig value
 FD_dis[9] = 0.00000000 with 2.235227 eig value
*** PSI4 exiting successfully. Buy a developer a beer!
