    -----------------------------------------------------------------------
          PSI4: An Open-Source Ab Initio Electronic Structure Package
                              PSI 4.0 Driver

               Git: Rev {master} 556e8139d3cfa1f96ccffe2cdf22cc56a185d2b2

    J. M. Turney, A. C. Simmonett, R. M. Parrish, E. G. Hohenstein,
    F. A. Evangelista, J. T. Fermann, B. J. Mintz, L. A. Burns, J. J. Wilke,
    M. L. Abrams, N. J. Russ, M. L. Leininger, C. L. Janssen, E. T. Seidl,
    W. D. Allen, H. F. Schaefer, R. A. King, E. F. Valeev, C. D. Sherrill,
    and T. D. Crawford, WIREs Comput. Mol. Sci. 2, 556-565 (2012)
    (doi: 10.1002/wcms.93)

                         Additional Contributions by
    A. E. DePrince, M. Saitow, U. Bozkaya, A. Yu. Sokolov
    -----------------------------------------------------------------------

    Process ID:  11941
    PSI4DATADIR: /Users/kevinhannon/Programs/psi4cmake/psi4/lib
    Memory level set to 256.000 MB

  ==> Input File <==

--------------------------------------------------------------------------

# PYTHONPATH must include directory above plugin directory.
#     Define either externally or here, then import plugin.
sys.path.insert(0, '/Users/kevinhannon/Programs/Quantum_Programs/Quantum-Programs/GS/')
import scf

molecule {
0 1
H
H 1 1.60000
symmetry c1
units angstrom
}


set {
  basis cc-pvdz
  reference rhf
  scf_type  pk
}

set scf {
  DO_FTHF true
  MAX_ITER 130
  MAX_TEMP 100
  TEMP_INCREMENT 0
  bisect  true
  bisect_iter  40
}
energy('rhf')

energy('scf')


--------------------------------------------------------------------------

*** tstart() called on Kevins-MacBook-Pro.local
*** at Fri Apr 10 18:02:08 2015

/Users/kevinhannon/Programs/Quantum_Programs/Quantum-Programs/GS/scf/scf.so loaded.

*** tstart() called on Kevins-MacBook-Pro.local
*** at Fri Apr 10 18:02:09 2015


         ---------------------------------------------------------
                                   SCF
            by Justin Turney, Rob Parrish, and Andy Simmonett
                              RHF Reference
                        1 Threads,    256 MiB Core
         ---------------------------------------------------------

  ==> Geometry <==

    Molecular point group: c1
    Full point group: D_inf_h

    Geometry (in Angstrom), charge = 0, multiplicity = 1:

       Center              X                  Y                   Z       
    ------------   -----------------  -----------------  -----------------
           H          0.000000000000     0.000000000000    -0.800000000000
           H          0.000000000000     0.000000000000     0.800000000000

  Running in c1 symmetry.

  Rotational constants: A = ************  B =     13.06777  C =     13.06777 [cm^-1]
  Rotational constants: A = ************  B = 391761.79901  C = 391761.79901 [MHz]
  Nuclear repulsion =    0.330735755368750

  Charge       = 0
  Multiplicity = 1
  Electrons    = 2
  Nalpha       = 1
  Nbeta        = 1

  ==> Algorithm <==

  SCF Algorithm Type is PK.
  DIIS enabled.
  MOM disabled.
  Fractional occupation disabled.
  Guess Type is CORE.
  Energy threshold   = 1.00e-06
  Density threshold  = 1.00e-06
  Integral threshold = 0.00e+00

  ==> Primary Basis <==

  Basis Set: CC-PVDZ
    Number of shells: 6
    Number of basis function: 10
    Number of Cartesian functions: 10
    Spherical Harmonics?: true
    Max angular momentum: 1

  ==> Pre-Iterations <==

   -------------------------------------------------------
    Irrep   Nso     Nmo     Nalpha   Nbeta   Ndocc  Nsocc
   -------------------------------------------------------
     A         10      10       0       0       0       0
   -------------------------------------------------------
    Total      10      10       1       1       1       0
   -------------------------------------------------------

  Starting with a DF guess...

 OEINTS: Overlap, kinetic, potential, dipole, and quadrupole integrals
         stored in file 35.

  ==> Integral Setup <==

  ==> DFJK: Density-Fitted J/K Matrices <==

    J tasked:                  Yes
    K tasked:                  Yes
    wK tasked:                  No
    OpenMP threads:              1
    Integrals threads:           1
    Memory (MB):               183
    Algorithm:                Core
    Integral Cache:           NONE
    Schwarz Cutoff:          1E-12
    Fitting Condition:       1E-12

   => Auxiliary Basis Set <=

  Basis Set: 
    Number of shells: 18
    Number of basis function: 46
    Number of Cartesian functions: 50
    Spherical Harmonics?: true
    Max angular momentum: 2

  Minimum eigenvalue in the overlap matrix is 1.8426710352E-01.
  Using Symmetric Orthogonalization.
  SCF Guess: Core (One-Electron) Hamiltonian.

  ==> Iterations <==

                           Total Energy        Delta E     RMS |[F,P]|

   @DF-RHF iter   1:    -0.95468773942065   -9.54688e-01   1.65532e-02 
   @DF-RHF iter   2:    -0.98320825441334   -2.85205e-02   2.85351e-03 DIIS
   @DF-RHF iter   3:    -0.98410193412660   -8.93680e-04   1.01755e-04 DIIS
   @DF-RHF iter   4:    -0.98410278810978   -8.53983e-07   1.46875e-06 DIIS
   @DF-RHF iter   5:    -0.98410278834958   -2.39804e-10   1.44208e-10 DIIS

  DF guess converged.

  ==> Integral Setup <==

 MINTS: Wrapper to libmints.
   by Justin Turney

   Calculation information:
      Number of atoms:                   2
      Number of AO shells:               6
      Number of SO shells:               6
      Number of primitives:             10
      Number of atomic orbitals:        10
      Number of basis functions:        10

      Number of irreps:                  1
      Integral cutoff                 0.00e+00
      Number of functions per irrep: [  10 ]

 OEINTS: Overlap, kinetic, potential, dipole, and quadrupole integrals
         stored in file 35.

      Computing two-electron integrals...done
      Computed 512 non-zero two-electron integrals.
        Stored in file 33.

	Batch   1 pq = [       0,      55] index = [             0,1540]
  ==> DiskJK: Disk-Based J/K Matrices <==

    J tasked:                  Yes
    K tasked:                  Yes
    wK tasked:                  No
    Memory (MB):               183
    Schwarz Cutoff:          1E-12

   @RHF iter   6:    -0.98409678772889    6.00062e-06   1.59930e-06 DIIS
   @RHF iter   7:    -0.98409678791013   -1.81241e-10   2.62065e-07 DIIS

  ==> Post-Iterations <==

    Orbital Energies (a.u.)
    -----------------------

    Doubly Occupied:                                                      

       1A     -0.426555  

    Virtual:                                                              

       2A      0.022547     3A      0.659658     4A      0.665982  
       5A      1.256068     6A      1.403855     7A      1.403855  
       8A      1.583385     9A      1.583385    10A      2.031633  

    Final Occupation by Irrep:
              A 
    DOCC [     1 ]

  Energy converged.

  @RHF Final Energy:    -0.98409678791013

   => Energetics <=

    Nuclear Repulsion Energy =              0.3307357553687500
    One-Electron Energy =                  -1.7765554747652785
    Two-Electron Energy =                   0.4617229314863973
    DFT Exchange-Correlation Energy =       0.0000000000000000
    Empirical Dispersion Energy =           0.0000000000000000
    PCM Polarization Energy =               0.0000000000000000
    EFP Energy =                            0.0000000000000000
    Total Energy =                         -0.9840967879101312

    Alert: EFP and PCM quantities not currently incorporated into SCF psivars.

Properties will be evaluated at   0.000000,   0.000000,   0.000000 Bohr
  ==> Properties <==


Properties computed using the SCF density matrix

  Nuclear Dipole Moment: (a.u.)
     X:     0.0000      Y:     0.0000      Z:     0.0000

  Electronic Dipole Moment: (a.u.)
     X:    -0.0000      Y:    -0.0000      Z:    -0.0000

  Dipole Moment: (a.u.)
     X:    -0.0000      Y:    -0.0000      Z:    -0.0000     Total:     0.0000

  Dipole Moment: (Debye)
     X:    -0.0000      Y:    -0.0000      Z:    -0.0000     Total:     0.0000


  Saving occupied orbitals to File 180.

*** tstop() called on Kevins-MacBook-Pro.local at Fri Apr 10 18:02:09 2015
Module time:
	user time   =       0.20 seconds =       0.00 minutes
	system time =       0.01 seconds =       0.00 minutes
	total time  =          0 seconds =       0.00 minutes
Total time:
	user time   =       0.21 seconds =       0.00 minutes
	system time =       0.02 seconds =       0.00 minutes
	total time  =          1 seconds =       0.02 minutes

*** tstart() called on Kevins-MacBook-Pro.local
*** at Fri Apr 10 18:02:09 2015


         ---------------------------------------------------------
                                   SCF
            by Justin Turney, Rob Parrish, and Andy Simmonett
                              RHF Reference
                        1 Threads,    256 MiB Core
         ---------------------------------------------------------

  ==> Geometry <==

    Molecular point group: c1
    Full point group: D_inf_h

    Geometry (in Angstrom), charge = 0, multiplicity = 1:

       Center              X                  Y                   Z       
    ------------   -----------------  -----------------  -----------------
           H          0.000000000000     0.000000000000    -0.800000000000
           H          0.000000000000     0.000000000000     0.800000000000

  Running in c1 symmetry.

  Rotational constants: A = ************  B =     13.06777  C =     13.06777 [cm^-1]
  Rotational constants: A = ************  B = 391761.79901  C = 391761.79901 [MHz]
  Nuclear repulsion =    0.330735755368750

  Charge       = 0
  Multiplicity = 1
  Electrons    = 2
  Nalpha       = 1
  Nbeta        = 1

  ==> Algorithm <==

  SCF Algorithm Type is PK.
  DIIS enabled.
  MOM disabled.
  Fractional occupation disabled.
  Guess Type is CORE.
  Energy threshold   = 1.00e-08
  Density threshold  = 1.00e-08
  Integral threshold = 0.00e+00

  ==> Primary Basis <==

  Basis Set: CC-PVDZ
    Number of shells: 6
    Number of basis function: 10
    Number of Cartesian functions: 10
    Spherical Harmonics?: true
    Max angular momentum: 1

  ==> Pre-Iterations <==

   -------------------------------------------------------
    Irrep   Nso     Nmo     Nalpha   Nbeta   Ndocc  Nsocc
   -------------------------------------------------------
     A         10      10       0       0       0       0
   -------------------------------------------------------
    Total      10      10       1       1       1       0
   -------------------------------------------------------

  Starting with a DF guess...

 OEINTS: Overlap, kinetic, potential, dipole, and quadrupole integrals
         stored in file 35.

  ==> Integral Setup <==

  ==> DFJK: Density-Fitted J/K Matrices <==

    J tasked:                  Yes
    K tasked:                  Yes
    wK tasked:                  No
    OpenMP threads:              1
    Integrals threads:           1
    Memory (MB):               183
    Algorithm:                Core
    Integral Cache:           NONE
    Schwarz Cutoff:          1E-12
    Fitting Condition:       1E-12

   => Auxiliary Basis Set <=

  Basis Set: 
    Number of shells: 18
    Number of basis function: 46
    Number of Cartesian functions: 50
    Spherical Harmonics?: true
    Max angular momentum: 2

  Minimum eigenvalue in the overlap matrix is 1.8426710352E-01.
  Using Symmetric Orthogonalization.
  SCF Guess: Core (One-Electron) Hamiltonian.

  ==> Iterations <==

                           Total Energy        Delta E     RMS |[F,P]|

   @DF-RHF iter   1:    -0.95468773942065   -9.54688e-01   1.65532e-02 
   @DF-RHF iter   2:    -0.98320825441334   -2.85205e-02   2.85351e-03 DIIS
   @DF-RHF iter   3:    -0.98410193412660   -8.93680e-04   1.01755e-04 DIIS
   @DF-RHF iter   4:    -0.98410278810978   -8.53983e-07   1.46875e-06 DIIS
   @DF-RHF iter   5:    -0.98410278834958   -2.39803e-10   1.44208e-10 DIIS

  DF guess converged.

  ==> Integral Setup <==

 MINTS: Wrapper to libmints.
   by Justin Turney

   Calculation information:
      Number of atoms:                   2
      Number of AO shells:               6
      Number of SO shells:               6
      Number of primitives:             10
      Number of atomic orbitals:        10
      Number of basis functions:        10

      Number of irreps:                  1
      Integral cutoff                 0.00e+00
      Number of functions per irrep: [  10 ]

 OEINTS: Overlap, kinetic, potential, dipole, and quadrupole integrals
         stored in file 35.

      Computing two-electron integrals...done
      Computed 512 non-zero two-electron integrals.
        Stored in file 33.

	Batch   1 pq = [       0,      55] index = [             0,1540]
  ==> DiskJK: Disk-Based J/K Matrices <==

    J tasked:                  Yes
    K tasked:                  Yes
    wK tasked:                  No
    Memory (MB):               183
    Schwarz Cutoff:          1E-12

   @RHF iter   6:    -0.98409678772889    6.00062e-06   1.59930e-06 DIIS
   @RHF iter   7:    -0.98409678791013   -1.81242e-10   2.62065e-07 DIIS
   @RHF iter   8:    -0.98409678791534   -5.21139e-12   6.76488e-09 DIIS

  ==> Post-Iterations <==

    Orbital Energies (a.u.)
    -----------------------

    Doubly Occupied:                                                      

       1A     -0.426555  

    Virtual:                                                              

       2A      0.022547     3A      0.659658     4A      0.665982  
       5A      1.256068     6A      1.403855     7A      1.403855  
       8A      1.583385     9A      1.583385    10A      2.031633  

    Final Occupation by Irrep:
              A 
    DOCC [     1 ]

  Energy converged.

  @RHF Final Energy:    -0.98409678791534

   => Energetics <=

    Nuclear Repulsion Energy =              0.3307357553687500
    One-Electron Energy =                  -1.7765555481328539
    Two-Electron Energy =                   0.4617230048487606
    DFT Exchange-Correlation Energy =       0.0000000000000000
    Empirical Dispersion Energy =           0.0000000000000000
    PCM Polarization Energy =               0.0000000000000000
    EFP Energy =                            0.0000000000000000
    Total Energy =                         -0.9840967879153433

    Alert: EFP and PCM quantities not currently incorporated into SCF psivars.

Properties will be evaluated at   0.000000,   0.000000,   0.000000 Bohr
  ==> Properties <==


Properties computed using the SCF density matrix

  Nuclear Dipole Moment: (a.u.)
     X:     0.0000      Y:     0.0000      Z:     0.0000

  Electronic Dipole Moment: (a.u.)
     X:    -0.0000      Y:    -0.0000      Z:     0.0000

  Dipole Moment: (a.u.)
     X:    -0.0000      Y:    -0.0000      Z:     0.0000     Total:     0.0000

  Dipole Moment: (Debye)
     X:    -0.0000      Y:    -0.0000      Z:     0.0000     Total:     0.0000


  Saving occupied orbitals to File 180.

*** tstop() called on Kevins-MacBook-Pro.local at Fri Apr 10 18:02:09 2015
Module time:
	user time   =       0.19 seconds =       0.00 minutes
	system time =       0.01 seconds =       0.00 minutes
	total time  =          0 seconds =       0.00 minutes
Total time:
	user time   =       0.41 seconds =       0.01 minutes
	system time =       0.03 seconds =       0.00 minutes
	total time  =          1 seconds =       0.02 minutes
Reading options from the SCF block
Calling plugin scf.so.
    Molecular point group: c1
    Full point group: D_inf_h

    Geometry (in Angstrom), charge = 0, multiplicity = 1:

       Center              X                  Y                   Z       
    ------------   -----------------  -----------------  -----------------
           H          0.000000000000     0.000000000000    -0.800000000000
           H          0.000000000000     0.000000000000     0.800000000000


    Nuclear repulsion energy:       0.33073576

  ## Overlap (Symmetry 0) ##
  Irrep: 1 Size: 10 x 10

                 1                   2                   3                   4                   5

    1     1.00000000000000     0.68486025149275     0.00000000000000     0.00000000000000     0.00000000000000
    2     0.68486025149275     1.00000000000000     0.00000000000000     0.00000000000000     0.00000000000000
    3     0.00000000000000     0.00000000000000     1.00000000000000     0.00000000000000     0.00000000000000
    4     0.00000000000000     0.00000000000000     0.00000000000000     1.00000000000000     0.00000000000000
    5     0.00000000000000     0.00000000000000     0.00000000000000     0.00000000000000     1.00000000000000
    6     0.09650198384124     0.28015291816059     0.12810073972554     0.00000000000000     0.00000000000000
    7     0.28015291816059     0.57254869630806     0.16753330594476     0.00000000000000     0.00000000000000
    8    -0.12810073972554    -0.16753330594476    -0.20349560669151     0.00000000000000     0.00000000000000
    9     0.00000000000000     0.00000000000000     0.00000000000000     0.03604128782673     0.00000000000000
   10     0.00000000000000     0.00000000000000     0.00000000000000     0.00000000000000     0.03604128782673

                 6                   7                   8                   9                  10

    1     0.09650198384124     0.28015291816059    -0.12810073972554     0.00000000000000     0.00000000000000
    2     0.28015291816059     0.57254869630806    -0.16753330594476     0.00000000000000     0.00000000000000
    3     0.12810073972554     0.16753330594476    -0.20349560669151     0.00000000000000     0.00000000000000
    4     0.00000000000000     0.00000000000000     0.00000000000000     0.03604128782673     0.00000000000000
    5     0.00000000000000     0.00000000000000     0.00000000000000     0.00000000000000     0.03604128782673
    6     1.00000000000000     0.68486025149275    -0.00000000000000     0.00000000000000     0.00000000000000
    7     0.68486025149275     1.00000000000000     0.00000000000000     0.00000000000000     0.00000000000000
    8    -0.00000000000000     0.00000000000000     1.00000000000000     0.00000000000000     0.00000000000000
    9     0.00000000000000     0.00000000000000     0.00000000000000     1.00000000000000     0.00000000000000
   10     0.00000000000000     0.00000000000000     0.00000000000000     0.00000000000000     1.00000000000000



  ## Kinetic (Symmetry 0) ##
  Irrep: 1 Size: 10 x 10

                 1                   2                   3                   4                   5

    1     0.96945722711242     0.20123413106538    -0.00000000000000     0.00000000000000     0.00000000000000
    2     0.20123413106538     0.18300000000000     0.00000000000000     0.00000000000000     0.00000000000000
    3    -0.00000000000000     0.00000000000000     1.81750000000000     0.00000000000000     0.00000000000000
    4     0.00000000000000     0.00000000000000     0.00000000000000     1.81750000000000     0.00000000000000
    5     0.00000000000000     0.00000000000000     0.00000000000000     0.00000000000000     1.81750000000000
    6    -0.03361088497401     0.03306278503789    -0.01640228824431     0.00000000000000     0.00000000000000
    7     0.03306278503789     0.06582351115177     0.05407957632439     0.00000000000000     0.00000000000000
    8     0.01640228824431    -0.05407957632439    -0.05237429589696     0.00000000000000     0.00000000000000
    9     0.00000000000000     0.00000000000000     0.00000000000000    -0.02156662053229     0.00000000000000
   10     0.00000000000000     0.00000000000000     0.00000000000000     0.00000000000000    -0.02156662053229

                 6                   7                   8                   9                  10

    1    -0.03361088497401     0.03306278503789     0.01640228824431     0.00000000000000     0.00000000000000
    2     0.03306278503789     0.06582351115177    -0.05407957632439     0.00000000000000     0.00000000000000
    3    -0.01640228824431     0.05407957632439    -0.05237429589696     0.00000000000000     0.00000000000000
    4     0.00000000000000     0.00000000000000     0.00000000000000    -0.02156662053229     0.00000000000000
    5     0.00000000000000     0.00000000000000     0.00000000000000     0.00000000000000    -0.02156662053229
    6     0.96945722711242     0.20123413106538     0.00000000000000     0.00000000000000     0.00000000000000
    7     0.20123413106538     0.18300000000000     0.00000000000000     0.00000000000000     0.00000000000000
    8     0.00000000000000     0.00000000000000     1.81750000000000     0.00000000000000     0.00000000000000
    9     0.00000000000000     0.00000000000000     0.00000000000000     1.81750000000000     0.00000000000000
   10     0.00000000000000     0.00000000000000     0.00000000000000     0.00000000000000     1.81750000000000



  ## Potential (Symmetry 0) ##
  Irrep: 1 Size: 10 x 10

                 1                   2                   3                   4                   5

    1    -1.70858543614766    -0.87595661389022    -0.06881221189261     0.00000000000000     0.00000000000000
    2    -0.87595661389022    -0.87664670523144    -0.06446274050117     0.00000000000000     0.00000000000000
    3    -0.06881221189261    -0.06446274050117    -1.26269570001565     0.00000000000000     0.00000000000000
    4     0.00000000000000     0.00000000000000     0.00000000000000    -1.22537580119307     0.00000000000000
    5     0.00000000000000     0.00000000000000     0.00000000000000     0.00000000000000    -1.22537580119307
    6    -0.12787046474933    -0.35954575329267    -0.16398866315897     0.00000000000000     0.00000000000000
    7    -0.35954575329267    -0.53708495399091    -0.21072851433955     0.00000000000000     0.00000000000000
    8     0.16398866315897     0.21072851433955     0.25693081371263     0.00000000000000     0.00000000000000
    9     0.00000000000000     0.00000000000000     0.00000000000000    -0.04063578994567     0.00000000000000
   10     0.00000000000000     0.00000000000000     0.00000000000000     0.00000000000000    -0.04063578994567

                 6                   7                   8                   9                  10

    1    -0.12787046474933    -0.35954575329267     0.16398866315897     0.00000000000000     0.00000000000000
    2    -0.35954575329267    -0.53708495399091     0.21072851433955     0.00000000000000     0.00000000000000
    3    -0.16398866315897    -0.21072851433955     0.25693081371263     0.00000000000000     0.00000000000000
    4     0.00000000000000     0.00000000000000     0.00000000000000    -0.04063578994567     0.00000000000000
    5     0.00000000000000     0.00000000000000     0.00000000000000     0.00000000000000    -0.04063578994567
    6    -1.70858543614766    -0.87595661389022     0.06881221189261     0.00000000000000     0.00000000000000
    7    -0.87595661389022    -0.87664670523144     0.06446274050117     0.00000000000000     0.00000000000000
    8     0.06881221189261     0.06446274050117    -1.26269570001565     0.00000000000000     0.00000000000000
    9     0.00000000000000     0.00000000000000     0.00000000000000    -1.22537580119307     0.00000000000000
   10     0.00000000000000     0.00000000000000     0.00000000000000     0.00000000000000    -1.22537580119307



  ## One Electron Ints (Symmetry 0) ##
  Irrep: 1 Size: 10 x 10

                 1                   2                   3                   4                   5

    1    -0.73912820903524    -0.67472248282484    -0.06881221189261     0.00000000000000     0.00000000000000
    2    -0.67472248282484    -0.69364670523144    -0.06446274050117     0.00000000000000     0.00000000000000
    3    -0.06881221189261    -0.06446274050117     0.55480429998435     0.00000000000000     0.00000000000000
    4     0.00000000000000     0.00000000000000     0.00000000000000     0.59212419880693     0.00000000000000
    5     0.00000000000000     0.00000000000000     0.00000000000000     0.00000000000000     0.59212419880693
    6    -0.16148134972334    -0.32648296825478    -0.18039095140328     0.00000000000000     0.00000000000000
    7    -0.32648296825478    -0.47126144283913    -0.15664893801516     0.00000000000000     0.00000000000000
    8     0.18039095140328     0.15664893801516     0.20455651781567     0.00000000000000     0.00000000000000
    9     0.00000000000000     0.00000000000000     0.00000000000000    -0.06220241047797     0.00000000000000
   10     0.00000000000000     0.00000000000000     0.00000000000000     0.00000000000000    -0.06220241047797

                 6                   7                   8                   9                  10

    1    -0.16148134972334    -0.32648296825478     0.18039095140328     0.00000000000000     0.00000000000000
    2    -0.32648296825478    -0.47126144283913     0.15664893801516     0.00000000000000     0.00000000000000
    3    -0.18039095140328    -0.15664893801516     0.20455651781567     0.00000000000000     0.00000000000000
    4     0.00000000000000     0.00000000000000     0.00000000000000    -0.06220241047797     0.00000000000000
    5     0.00000000000000     0.00000000000000     0.00000000000000     0.00000000000000    -0.06220241047797
    6    -0.73912820903524    -0.67472248282484     0.06881221189261     0.00000000000000     0.00000000000000
    7    -0.67472248282484    -0.69364670523144     0.06446274050117     0.00000000000000     0.00000000000000
    8     0.06881221189261     0.06446274050117     0.55480429998435     0.00000000000000     0.00000000000000
    9     0.00000000000000     0.00000000000000     0.00000000000000     0.59212419880693     0.00000000000000
   10     0.00000000000000     0.00000000000000     0.00000000000000     0.00000000000000     0.59212419880693




	There are 0 unique integrals

  ## Fock (Symmetry 0) ##
  Irrep: 1 Size: 10 x 10

                 1                   2                   3                   4                   5

    1    -0.49536115221933    -0.35340633218516    -0.05663109139539    -0.00000000000000     0.00000000000000
    2    -0.35340633218516    -0.32596039963205     0.09828015856248     0.00000000000000     0.00000000000000
    3    -0.05663109139539     0.09828015856248     0.68286894028032    -0.00000000000000     0.00000000000000
    4    -0.00000000000000     0.00000000000000    -0.00000000000000     0.59513912429016     0.00000000000000
    5     0.00000000000000     0.00000000000000     0.00000000000000     0.00000000000000     0.59513912429016
    6    -0.00317278548318    -0.05253236688300    -0.10180568371623    -0.00000000000000     0.00000000000000
    7    -0.05253236688300    -0.12328853386009    -0.16415489550796     0.00000000000000     0.00000000000000
    8     0.10180568371623     0.16415489550796     0.36381842440443    -0.00000000000000     0.00000000000000
    9     0.00000000000000    -0.00000000000000    -0.00000000000000    -0.08365199095346     0.00000000000000
   10     0.00000000000000     0.00000000000000     0.00000000000000     0.00000000000000    -0.08365199095346

                 6                   7                   8                   9                  10

    1    -0.00317278548318    -0.05253236688300     0.10180568371623     0.00000000000000     0.00000000000000
    2    -0.05253236688300    -0.12328853386009     0.16415489550796    -0.00000000000000     0.00000000000000
    3    -0.10180568371623    -0.16415489550796     0.36381842440443    -0.00000000000000     0.00000000000000
    4    -0.00000000000000     0.00000000000000    -0.00000000000000    -0.08365199095346     0.00000000000000
    5     0.00000000000000     0.00000000000000     0.00000000000000     0.00000000000000    -0.08365199095346
    6    -0.49536115221933    -0.35340633218516     0.05663109139539     0.00000000000000     0.00000000000000
    7    -0.35340633218516    -0.32596039963205    -0.09828015856248    -0.00000000000000     0.00000000000000
    8     0.05663109139539    -0.09828015856248     0.68286894028032    -0.00000000000000     0.00000000000000
    9     0.00000000000000    -0.00000000000000    -0.00000000000000     0.59513912429016     0.00000000000000
   10     0.00000000000000     0.00000000000000     0.00000000000000     0.00000000000000     0.59513912429016



  ## C (Symmetry 0) ##
  Irrep: 1 Size: 10 x 10

                 1                   2                   3                   4                   5

    1     0.35141346728705     0.39679144692334     0.16001560222549    -0.00791977841231    -0.01378856571444
    2     0.57568087894085     0.38261401365326    -0.17089307679042     0.17567411332529     0.31752126614367
    3    -0.43967162222259     0.56942864714481    -0.10946504051528     0.12573097209964     0.07396004977525
    4     0.39921516411359    -0.57147515204147     0.12054501023627     0.00000000000000     0.01275287523605
    5    -0.13546475559133     0.01407808356337     0.70678511330726     0.00000000000000     0.00000000000000
    6     0.03868450883136     0.01174067424403     0.00206869534068    -0.72368282569752     0.66756524653217
    7    -0.20221670821634    -0.23112606744632     0.04900121836652    -0.05957206219292    -1.14528705048477
    8     0.02476410501929     0.11824362595935    -0.01862119127595     0.74641920099915     0.05428505921634
    9    -0.00719645207853     0.01030169671753    -0.00217300460366     0.00000000000000    -0.70745155039192
   10     0.00947505378735    -0.14150628258076    -0.70567718128256     0.00000000000000     0.00000000000000

                 6                   7                   8                   9                  10

    1     0.98318240337747     0.82122838591974    -0.07990797073336    -0.03716729452970    -0.01378856571444
    2    -1.20655818083562    -0.81473528270892    -0.05509294701594     0.00807384170296     0.31752126614367
    3    -0.53177680596872     0.50755026088412     0.09778620083743    -0.04167793886535     0.07396004977525
    4    -0.39921516411359     0.57147515204147     0.12054501023627     0.00000000000000    -0.01275287523605
    5    -0.13521110887386     0.00898385169647    -0.68179455964845    -0.00000000000000     0.00000000000000
    6     0.00470141279723    -0.01108995327559    -0.00637771589954    -0.73415618588372     0.66756524653217
    7     0.34246184612088     0.13480154490274     0.02006344502533     0.05200165718291    -1.14528705048477
    8    -0.11359153912373     0.02529311393143     0.00107784224007    -0.71865383565916     0.05428505921634
    9     0.00719645207853    -0.01030169671753    -0.00217300460366    -0.00000000000000     0.70745155039192
   10    -0.00459571536902     0.14109055660927    -0.68064595007711     0.00000000000000    -0.00000000000000




 In Bisection function HOMO = -0.902  LUMO =  1.100

 0.09898 = (-0.90176 + 1.09973)/2.0
 sum -  nocc_ = 3.00000000
 On Iteration in Bisection 0
 a: 3.00000  b:-0.50000

 -0.40139 = (-0.90176 + 0.09898)/2.0
 sum -  nocc_ = 1.00000000
 On Iteration in Bisection 1
 a: 1.00000  b:-0.50000

 -0.65158 = (-0.90176 + -0.40139)/2.0
 sum -  nocc_ = 1.00000000
 On Iteration in Bisection 2
 a: 1.00000  b:-0.50000

 -0.77667 = (-0.90176 + -0.65158)/2.0
 sum -  nocc_ = 0.00000000
 ef = -0.77667 sum = 1.00000 

 Iter: 0  T:      100.000  val:-0.776668  sumni 0.00000
 ne = 1.0000

Nuc Replusion =       0.330735755369
 1st iteration =      -0.455269927317
 In Bisection function HOMO = -0.301  LUMO =  2.055

 0.87705 = (-0.30068 + 2.05479)/2.0
 sum -  nocc_ = 2.00000000
 On Iteration in Bisection 0
 a: 2.00000  b:-0.50000

 0.28819 = (-0.30068 + 0.87705)/2.0
 sum -  nocc_ = 1.00000000
 On Iteration in Bisection 1
 a: 1.00000  b:-0.50000

 -0.00624 = (-0.30068 + 0.28819)/2.0
 sum -  nocc_ = 0.00000000
 ef = -0.00624 sum = 1.00000 

 Iter: 0  T:      100.000  val:-0.006244  sumni 0.00000
 ne = 1.0000

 iter:1  failiter:1  energy:     -1.140396389720  total:     -0.809660634351  error:     -0.156299601804
 In Bisection function HOMO = -0.353  LUMO =  2.107

 0.87709 = (-0.35287 + 2.10706)/2.0
 sum -  nocc_ = 3.00000000
 On Iteration in Bisection 0
 a: 3.00000  b:-0.50000

 0.26211 = (-0.35287 + 0.87709)/2.0
 sum -  nocc_ = 1.00000000
 On Iteration in Bisection 1
 a: 1.00000  b:-0.50000

 -0.04538 = (-0.35287 + 0.26211)/2.0
 sum -  nocc_ = 0.00175883
 On Iteration in Bisection 2
 a: 0.00176  b:-0.50000

 -0.19912 = (-0.35287 + -0.04538)/2.0
 sum -  nocc_ = 0.00000000
 ef = -0.19912 sum = 1.00000 

 Iter: 1  T:      100.000  val:-0.199122  sumni 0.00000
 ne = 1.0000

 iter:2  failiter:2  energy:     -1.239446999613  total:     -0.908711244244  error:     -0.099050609893
 In Bisection function HOMO = -0.426  LUMO =  2.033

 0.80344 = (-0.42590 + 2.03278)/2.0
 sum -  nocc_ = 3.00000000
 On Iteration in Bisection 0
 a: 3.00000  b:-0.50000

 0.18877 = (-0.42590 + 0.80344)/2.0
 sum -  nocc_ = 1.00000000
 On Iteration in Bisection 1
 a: 1.00000  b:-0.50000

 -0.11857 = (-0.42590 + 0.18877)/2.0
 sum -  nocc_ = 0.00000000
 ef = -0.11857 sum = 1.00000 

 Iter: 2  T:      100.000  val:-0.118567  sumni 0.00000
 ne = 1.0000

 iter:3  failiter:3  energy:     -1.314124599846  total:     -0.983388844478  error:     -0.074677600233
 In Bisection function HOMO = -0.427  LUMO =  2.032

 0.80256 = (-0.42658 + 2.03169)/2.0
 sum -  nocc_ = 3.00000000
 On Iteration in Bisection 0
 a: 3.00000  b:-0.50000

 0.18799 = (-0.42658 + 0.80256)/2.0
 sum -  nocc_ = 1.00000000
 On Iteration in Bisection 1
 a: 1.00000  b:-0.50000

 -0.11930 = (-0.42658 + 0.18799)/2.0
 sum -  nocc_ = 0.00000000
 ef = -0.11930 sum = 1.00000 

 Iter: 3  T:      100.000  val:-0.119296  sumni 0.00000
 ne = 1.0000

 iter:4  failiter:4  energy:     -1.314868292293  total:     -0.984132536924  error:     -0.000743692447
 In Bisection function HOMO = -0.427  LUMO =  2.032

 0.80257 = (-0.42654 + 2.03168)/2.0
 sum -  nocc_ = 3.00000000
 On Iteration in Bisection 0
 a: 3.00000  b:-0.50000

 0.18801 = (-0.42654 + 0.80257)/2.0
 sum -  nocc_ = 1.00000000
 On Iteration in Bisection 1
 a: 1.00000  b:-0.50000

 -0.11927 = (-0.42654 + 0.18801)/2.0
 sum -  nocc_ = 0.00000000
 ef = -0.11927 sum = 1.00000 

 Iter: 4  T:      100.000  val:-0.119266  sumni 0.00000
 ne = 1.0000

 iter:5  failiter:5  energy:     -1.314825833925  total:     -0.984090078557  error:      0.000042458368
 In Bisection function HOMO = -0.427  LUMO =  2.032

 0.80255 = (-0.42655 + 2.03165)/2.0
 sum -  nocc_ = 3.00000000
 On Iteration in Bisection 0
 a: 3.00000  b:-0.50000

 0.18800 = (-0.42655 + 0.80255)/2.0
 sum -  nocc_ = 1.00000000
 On Iteration in Bisection 1
 a: 1.00000  b:-0.50000

 -0.11928 = (-0.42655 + 0.18800)/2.0
 sum -  nocc_ = 0.00000000
 ef = -0.11928 sum = 1.00000 

 Iter: 5  T:      100.000  val:-0.119275  sumni 0.00000
 ne = 1.0000

 iter:6  failiter:6  energy:     -1.314829032181  total:     -0.984093276812  error:     -0.000003198255
 In Bisection function HOMO = -0.427  LUMO =  2.032

 0.80254 = (-0.42655 + 2.03164)/2.0
 sum -  nocc_ = 3.00000000
 On Iteration in Bisection 0
 a: 3.00000  b:-0.50000

 0.18799 = (-0.42655 + 0.80254)/2.0
 sum -  nocc_ = 1.00000000
 On Iteration in Bisection 1
 a: 1.00000  b:-0.50000

 -0.11928 = (-0.42655 + 0.18799)/2.0
 sum -  nocc_ = 0.00000000
 ef = -0.11928 sum = 1.00000 

 Iter: 6  T:      100.000  val:-0.119280  sumni 0.00000
 ne = 1.0000

 iter:7  failiter:7  energy:     -1.314831539138  total:     -0.984095783770  error:     -0.000002506958
 In Bisection function HOMO = -0.427  LUMO =  2.032

 0.80254 = (-0.42655 + 2.03163)/2.0
 sum -  nocc_ = 3.00000000
 On Iteration in Bisection 0
 a: 3.00000  b:-0.50000

 0.18799 = (-0.42655 + 0.80254)/2.0
 sum -  nocc_ = 1.00000000
 On Iteration in Bisection 1
 a: 1.00000  b:-0.50000

 -0.11928 = (-0.42655 + 0.18799)/2.0
 sum -  nocc_ = 0.00000000
 ef = -0.11928 sum = 1.00000 

 Iter: 7  T:      100.000  val:-0.119281  sumni 0.00000
 ne = 1.0000

 iter:8  failiter:8  energy:     -1.314832301784  total:     -0.984096546415  error:     -0.000000762646
 In Bisection function HOMO = -0.427  LUMO =  2.032

 0.80254 = (-0.42655 + 2.03163)/2.0
 sum -  nocc_ = 3.00000000
 On Iteration in Bisection 0
 a: 3.00000  b:-0.50000

 0.18799 = (-0.42655 + 0.80254)/2.0
 sum -  nocc_ = 1.00000000
 On Iteration in Bisection 1
 a: 1.00000  b:-0.50000

 -0.11928 = (-0.42655 + 0.18799)/2.0
 sum -  nocc_ = 0.00000000
 ef = -0.11928 sum = 1.00000 

 Iter: 8  T:      100.000  val:-0.119281  sumni 0.00000
 ne = 1.0000

 iter:9  failiter:9  energy:     -1.314832489690  total:     -0.984096734321  error:     -0.000000187906
 In Bisection function HOMO = -0.427  LUMO =  2.032

 0.80254 = (-0.42655 + 2.03163)/2.0
 sum -  nocc_ = 3.00000000
 On Iteration in Bisection 0
 a: 3.00000  b:-0.50000

 0.18799 = (-0.42655 + 0.80254)/2.0
 sum -  nocc_ = 1.00000000
 On Iteration in Bisection 1
 a: 1.00000  b:-0.50000

 -0.11928 = (-0.42655 + 0.18799)/2.0
 sum -  nocc_ = 0.00000000
 ef = -0.11928 sum = 1.00000 

 Iter: 9  T:      100.000  val:-0.119281  sumni 0.00000
 ne = 1.0000

 iter:10  failiter:10  energy:     -1.314832531914  total:     -0.984096776546  error:     -0.000000042224
 In Bisection function HOMO = -0.427  LUMO =  2.032

 0.80254 = (-0.42655 + 2.03163)/2.0
 sum -  nocc_ = 3.00000000
 On Iteration in Bisection 0
 a: 3.00000  b:-0.50000

 0.18799 = (-0.42655 + 0.80254)/2.0
 sum -  nocc_ = 1.00000000
 On Iteration in Bisection 1
 a: 1.00000  b:-0.50000

 -0.11928 = (-0.42655 + 0.18799)/2.0
 sum -  nocc_ = 0.00000000
 ef = -0.11928 sum = 1.00000 

 Iter: 10  T:      100.000  val:-0.119281  sumni 0.00000
 ne = 1.0000

 iter:11  failiter:11  energy:     -1.314832540938  total:     -0.984096785570  error:     -0.000000009024
 In Bisection function HOMO = -0.427  LUMO =  2.032

 0.80254 = (-0.42655 + 2.03163)/2.0
 sum -  nocc_ = 3.00000000
 On Iteration in Bisection 0
 a: 3.00000  b:-0.50000

 0.18799 = (-0.42655 + 0.80254)/2.0
 sum -  nocc_ = 1.00000000
 On Iteration in Bisection 1
 a: 1.00000  b:-0.50000

 -0.11928 = (-0.42655 + 0.18799)/2.0
 sum -  nocc_ = 0.00000000
 ef = -0.11928 sum = 1.00000 

 Iter: 11  T:      100.000  val:-0.119281  sumni 0.00000
 ne = 1.0000

 iter:12  failiter:12  energy:     -1.314832542809  total:     -0.984096787440  error:     -0.000000001871
 In Bisection function HOMO = -0.427  LUMO =  2.032

 0.80254 = (-0.42655 + 2.03163)/2.0
 sum -  nocc_ = 3.00000000
 On Iteration in Bisection 0
 a: 3.00000  b:-0.50000

 0.18799 = (-0.42655 + 0.80254)/2.0
 sum -  nocc_ = 1.00000000
 On Iteration in Bisection 1
 a: 1.00000  b:-0.50000

 -0.11928 = (-0.42655 + 0.18799)/2.0
 sum -  nocc_ = 0.00000000
 ef = -0.11928 sum = 1.00000 

 Iter: 12  T:      100.000  val:-0.119281  sumni 0.00000
 ne = 1.0000

 iter:13  failiter:13  energy:     -1.314832543189  total:     -0.984096787820  error:     -0.000000000380
 In Bisection function HOMO = -0.427  LUMO =  2.032

 0.80254 = (-0.42655 + 2.03163)/2.0
 sum -  nocc_ = 3.00000000
 On Iteration in Bisection 0
 a: 3.00000  b:-0.50000

 0.18799 = (-0.42655 + 0.80254)/2.0
 sum -  nocc_ = 1.00000000
 On Iteration in Bisection 1
 a: 1.00000  b:-0.50000

 -0.11928 = (-0.42655 + 0.18799)/2.0
 sum -  nocc_ = 0.00000000
 ef = -0.11928 sum = 1.00000 

 Iter: 13  T:      100.000  val:-0.119281  sumni 0.00000
 ne = 1.0000

 iter:14  failiter:14  energy:     -1.314832543265  total:     -0.984096787896  error:     -0.000000000076
 In Bisection function HOMO = -0.427  LUMO =  2.032

 0.80254 = (-0.42655 + 2.03163)/2.0
 sum -  nocc_ = 3.00000000
 On Iteration in Bisection 0
 a: 3.00000  b:-0.50000

 0.18799 = (-0.42655 + 0.80254)/2.0
 sum -  nocc_ = 1.00000000
 On Iteration in Bisection 1
 a: 1.00000  b:-0.50000

 -0.11928 = (-0.42655 + 0.18799)/2.0
 sum -  nocc_ = 0.00000000
 ef = -0.11928 sum = 1.00000 

 Iter: 14  T:      100.000  val:-0.119281  sumni 0.00000
 ne = 1.0000

 iter:15  failiter:15  energy:     -1.314832543280  total:     -0.984096787912  error:     -0.000000000015
 In Bisection function HOMO = -0.427  LUMO =  2.032

 0.80254 = (-0.42655 + 2.03163)/2.0
 sum -  nocc_ = 3.00000000
 On Iteration in Bisection 0
 a: 3.00000  b:-0.50000

 0.18799 = (-0.42655 + 0.80254)/2.0
 sum -  nocc_ = 1.00000000
 On Iteration in Bisection 1
 a: 1.00000  b:-0.50000

 -0.11928 = (-0.42655 + 0.18799)/2.0
 sum -  nocc_ = 0.00000000
 ef = -0.11928 sum = 1.00000 

 Iter: 15  T:      100.000  val:-0.119281  sumni 0.00000
 ne = 1.0000

 iter:16  failiter:16  energy:     -1.314832543283  total:     -0.984096787915  error:     -0.000000000003
 In Bisection function HOMO = -0.427  LUMO =  2.032

 0.80254 = (-0.42655 + 2.03163)/2.0
 sum -  nocc_ = 3.00000000
 On Iteration in Bisection 0
 a: 3.00000  b:-0.50000

 0.18799 = (-0.42655 + 0.80254)/2.0
 sum -  nocc_ = 1.00000000
 On Iteration in Bisection 1
 a: 1.00000  b:-0.50000

 -0.11928 = (-0.42655 + 0.18799)/2.0
 sum -  nocc_ = 0.00000000
 ef = -0.11928 sum = 1.00000 

 Iter: 16  T:      100.000  val:-0.119281  sumni 0.00000
 ne = 1.0000

 iter:17  failiter:17  energy:     -1.314832543284  total:     -0.984096787915  error:     -0.000000000001
 FTHFEnergy =    -0.984097
 FD_dis[0] = 1.00000000 with -0.426555 eig value
 FD_dis[1] = 0.00000000 with 0.022547 eig value
 FD_dis[2] = 0.00000000 with 0.659658 eig value
 FD_dis[3] = 0.00000000 with 0.665982 eig value
 FD_dis[4] = 0.00000000 with 1.256068 eig value
 FD_dis[5] = 0.00000000 with 1.403855 eig value
 FD_dis[6] = 0.00000000 with 1.403855 eig value
 FD_dis[7] = 0.00000000 with 1.583385 eig value
 FD_dis[8] = 0.00000000 with 1.583385 eig value
 FD_dis[9] = 0.00000000 with 2.031633 eig value
*** PSI4 exiting successfully. Buy a developer a beer!
