    -----------------------------------------------------------------------
          PSI4: An Open-Source Ab Initio Electronic Structure Package
                              PSI 4.0 Driver

               Git: Rev {master} 556e8139d3cfa1f96ccffe2cdf22cc56a185d2b2

    J. M. Turney, A. C. Simmonett, R. M. Parrish, E. G. Hohenstein,
    F. A. Evangelista, J. T. Fermann, B. J. Mintz, L. A. Burns, J. J. Wilke,
    M. L. Abrams, N. J. Russ, M. L. Leininger, C. L. Janssen, E. T. Seidl,
    W. D. Allen, H. F. Schaefer, R. A. King, E. F. Valeev, C. D. Sherrill,
    and T. D. Crawford, WIREs Comput. Mol. Sci. 2, 556-565 (2012)
    (doi: 10.1002/wcms.93)

                         Additional Contributions by
    A. E. DePrince, M. Saitow, U. Bozkaya, A. Yu. Sokolov
    -----------------------------------------------------------------------

    Process ID:  14576
    PSI4DATADIR: /Users/kevinhannon/Programs/psi4cmake/psi4/lib
    Memory level set to 256.000 MB

  ==> Input File <==

--------------------------------------------------------------------------

# PYTHONPATH must include directory above plugin directory.
#     Define either externally or here, then import plugin.
sys.path.insert(0, '/Users/kevinhannon/Programs/Quantum_Programs/Quantum-Programs/GS/')
import scf

molecule {
0 1
H
H 1 2.50000
symmetry c1
units angstrom
}


set {
  basis cc-pvdz
  reference rhf
  scf_type  pk
}

set scf {
  DO_FTHF true
  MAX_ITER 130
  MAX_TEMP 20000
  TEMP_INCREMENT 0
  bisect  true
  bisect_iter  40
}
energy('rhf')
energy('scf')


--------------------------------------------------------------------------

*** tstart() called on Kevins-MacBook-Pro.local
*** at Sun Apr 12 15:46:06 2015

/Users/kevinhannon/Programs/Quantum_Programs/Quantum-Programs/GS/scf/scf.so loaded.

*** tstart() called on Kevins-MacBook-Pro.local
*** at Sun Apr 12 15:46:06 2015


         ---------------------------------------------------------
                                   SCF
            by Justin Turney, Rob Parrish, and Andy Simmonett
                              RHF Reference
                        1 Threads,    256 MiB Core
         ---------------------------------------------------------

  ==> Geometry <==

    Molecular point group: c1
    Full point group: D_inf_h

    Geometry (in Angstrom), charge = 0, multiplicity = 1:

       Center              X                  Y                   Z       
    ------------   -----------------  -----------------  -----------------
           H          0.000000000000     0.000000000000    -1.250000000000
           H          0.000000000000     0.000000000000     1.250000000000

  Running in c1 symmetry.

  Rotational constants: A = ************  B =      5.35256  C =      5.35256 [cm^-1]
  Rotational constants: A = ************  B = 160465.63288  C = 160465.63288 [MHz]
  Nuclear repulsion =    0.211670883436000

  Charge       = 0
  Multiplicity = 1
  Electrons    = 2
  Nalpha       = 1
  Nbeta        = 1

  ==> Algorithm <==

  SCF Algorithm Type is PK.
  DIIS enabled.
  MOM disabled.
  Fractional occupation disabled.
  Guess Type is CORE.
  Energy threshold   = 1.00e-06
  Density threshold  = 1.00e-06
  Integral threshold = 0.00e+00

  ==> Primary Basis <==

  Basis Set: CC-PVDZ
    Number of shells: 6
    Number of basis function: 10
    Number of Cartesian functions: 10
    Spherical Harmonics?: true
    Max angular momentum: 1

  ==> Pre-Iterations <==

   -------------------------------------------------------
    Irrep   Nso     Nmo     Nalpha   Nbeta   Ndocc  Nsocc
   -------------------------------------------------------
     A         10      10       0       0       0       0
   -------------------------------------------------------
    Total      10      10       1       1       1       0
   -------------------------------------------------------

  Starting with a DF guess...

 OEINTS: Overlap, kinetic, potential, dipole, and quadrupole integrals
         stored in file 35.

  ==> Integral Setup <==

  ==> DFJK: Density-Fitted J/K Matrices <==

    J tasked:                  Yes
    K tasked:                  Yes
    wK tasked:                  No
    OpenMP threads:              1
    Integrals threads:           1
    Memory (MB):               183
    Algorithm:                Core
    Integral Cache:           NONE
    Schwarz Cutoff:          1E-12
    Fitting Condition:       1E-12

   => Auxiliary Basis Set <=

  Basis Set: 
    Number of shells: 18
    Number of basis function: 46
    Number of Cartesian functions: 50
    Spherical Harmonics?: true
    Max angular momentum: 2

  Minimum eigenvalue in the overlap matrix is 2.4626615138E-01.
  Using Symmetric Orthogonalization.
  SCF Guess: Core (One-Electron) Hamiltonian.

  ==> Iterations <==

                           Total Energy        Delta E     RMS |[F,P]|

   @DF-RHF iter   1:    -0.84661871123706   -8.46619e-01   1.26195e-02 
   @DF-RHF iter   2:    -0.86477751987096   -1.81588e-02   2.17926e-03 DIIS
   @DF-RHF iter   3:    -0.86535170017198   -5.74180e-04   3.96138e-05 DIIS
   @DF-RHF iter   4:    -0.86535183950499   -1.39333e-07   8.38282e-07 DIIS

  DF guess converged.

  ==> Integral Setup <==

 MINTS: Wrapper to libmints.
   by Justin Turney

   Calculation information:
      Number of atoms:                   2
      Number of AO shells:               6
      Number of SO shells:               6
      Number of primitives:             10
      Number of atomic orbitals:        10
      Number of basis functions:        10

      Number of irreps:                  1
      Integral cutoff                 0.00e+00
      Number of functions per irrep: [  10 ]

 OEINTS: Overlap, kinetic, potential, dipole, and quadrupole integrals
         stored in file 35.

      Computing two-electron integrals...done
      Computed 512 non-zero two-electron integrals.
        Stored in file 33.

	Batch   1 pq = [       0,      55] index = [             0,1540]
  ==> DiskJK: Disk-Based J/K Matrices <==

    J tasked:                  Yes
    K tasked:                  Yes
    wK tasked:                  No
    Memory (MB):               183
    Schwarz Cutoff:          1E-12

   @RHF iter   5:    -0.86533011483784    2.17247e-05   6.27993e-06 DIIS
   @RHF iter   6:    -0.86533011898883   -4.15099e-09   1.05292e-06 DIIS
   @RHF iter   7:    -0.86533011911714   -1.28317e-10   2.63738e-08 DIIS

  ==> Post-Iterations <==

    Orbital Energies (a.u.)
    -----------------------

    Doubly Occupied:                                                      

       1A     -0.349336  

    Virtual:                                                              

       2A     -0.084657     3A      0.624634     4A      0.667771  
       5A      1.453187     6A      1.463173     7A      1.463173  
       8A      1.470798     9A      1.470798    10A      1.523698  

    Final Occupation by Irrep:
              A 
    DOCC [     1 ]

  Energy converged.

  @RHF Final Energy:    -0.86533011911714

   => Energetics <=

    Nuclear Repulsion Energy =              0.2116708834360000
    One-Electron Energy =                  -1.4553307991807090
    Two-Electron Energy =                   0.3783297966275643
    DFT Exchange-Correlation Energy =       0.0000000000000000
    Empirical Dispersion Energy =           0.0000000000000000
    PCM Polarization Energy =               0.0000000000000000
    EFP Energy =                            0.0000000000000000
    Total Energy =                         -0.8653301191171447

    Alert: EFP and PCM quantities not currently incorporated into SCF psivars.

Properties will be evaluated at   0.000000,   0.000000,   0.000000 Bohr
  ==> Properties <==


Properties computed using the SCF density matrix

  Nuclear Dipole Moment: (a.u.)
     X:     0.0000      Y:     0.0000      Z:     0.0000

  Electronic Dipole Moment: (a.u.)
     X:    -0.0000      Y:    -0.0000      Z:    -0.0000

  Dipole Moment: (a.u.)
     X:    -0.0000      Y:    -0.0000      Z:    -0.0000     Total:     0.0000

  Dipole Moment: (Debye)
     X:    -0.0000      Y:    -0.0000      Z:    -0.0000     Total:     0.0000


  Saving occupied orbitals to File 180.

*** tstop() called on Kevins-MacBook-Pro.local at Sun Apr 12 15:46:06 2015
Module time:
	user time   =       0.19 seconds =       0.00 minutes
	system time =       0.01 seconds =       0.00 minutes
	total time  =          0 seconds =       0.00 minutes
Total time:
	user time   =       0.21 seconds =       0.00 minutes
	system time =       0.01 seconds =       0.00 minutes
	total time  =          0 seconds =       0.00 minutes

*** tstart() called on Kevins-MacBook-Pro.local
*** at Sun Apr 12 15:46:06 2015


         ---------------------------------------------------------
                                   SCF
            by Justin Turney, Rob Parrish, and Andy Simmonett
                              RHF Reference
                        1 Threads,    256 MiB Core
         ---------------------------------------------------------

  ==> Geometry <==

    Molecular point group: c1
    Full point group: D_inf_h

    Geometry (in Angstrom), charge = 0, multiplicity = 1:

       Center              X                  Y                   Z       
    ------------   -----------------  -----------------  -----------------
           H          0.000000000000     0.000000000000    -1.250000000000
           H          0.000000000000     0.000000000000     1.250000000000

  Running in c1 symmetry.

  Rotational constants: A = ************  B =      5.35256  C =      5.35256 [cm^-1]
  Rotational constants: A = ************  B = 160465.63288  C = 160465.63288 [MHz]
  Nuclear repulsion =    0.211670883436000

  Charge       = 0
  Multiplicity = 1
  Electrons    = 2
  Nalpha       = 1
  Nbeta        = 1

  ==> Algorithm <==

  SCF Algorithm Type is PK.
  DIIS enabled.
  MOM disabled.
  Fractional occupation disabled.
  Guess Type is CORE.
  Energy threshold   = 1.00e-08
  Density threshold  = 1.00e-08
  Integral threshold = 0.00e+00

  ==> Primary Basis <==

  Basis Set: CC-PVDZ
    Number of shells: 6
    Number of basis function: 10
    Number of Cartesian functions: 10
    Spherical Harmonics?: true
    Max angular momentum: 1

  ==> Pre-Iterations <==

   -------------------------------------------------------
    Irrep   Nso     Nmo     Nalpha   Nbeta   Ndocc  Nsocc
   -------------------------------------------------------
     A         10      10       0       0       0       0
   -------------------------------------------------------
    Total      10      10       1       1       1       0
   -------------------------------------------------------

  Starting with a DF guess...

 OEINTS: Overlap, kinetic, potential, dipole, and quadrupole integrals
         stored in file 35.

  ==> Integral Setup <==

  ==> DFJK: Density-Fitted J/K Matrices <==

    J tasked:                  Yes
    K tasked:                  Yes
    wK tasked:                  No
    OpenMP threads:              1
    Integrals threads:           1
    Memory (MB):               183
    Algorithm:                Core
    Integral Cache:           NONE
    Schwarz Cutoff:          1E-12
    Fitting Condition:       1E-12

   => Auxiliary Basis Set <=

  Basis Set: 
    Number of shells: 18
    Number of basis function: 46
    Number of Cartesian functions: 50
    Spherical Harmonics?: true
    Max angular momentum: 2

  Minimum eigenvalue in the overlap matrix is 2.4626615138E-01.
  Using Symmetric Orthogonalization.
  SCF Guess: Core (One-Electron) Hamiltonian.

  ==> Iterations <==

                           Total Energy        Delta E     RMS |[F,P]|

   @DF-RHF iter   1:    -0.84661871123706   -8.46619e-01   1.26195e-02 
   @DF-RHF iter   2:    -0.86477751987096   -1.81588e-02   2.17926e-03 DIIS
   @DF-RHF iter   3:    -0.86535170017198   -5.74180e-04   3.96138e-05 DIIS
   @DF-RHF iter   4:    -0.86535183950499   -1.39333e-07   8.38282e-07 DIIS
   @DF-RHF iter   5:    -0.86535183956117   -5.61893e-11   2.21727e-10 DIIS

  DF guess converged.

  ==> Integral Setup <==

 MINTS: Wrapper to libmints.
   by Justin Turney

   Calculation information:
      Number of atoms:                   2
      Number of AO shells:               6
      Number of SO shells:               6
      Number of primitives:             10
      Number of atomic orbitals:        10
      Number of basis functions:        10

      Number of irreps:                  1
      Integral cutoff                 0.00e+00
      Number of functions per irrep: [  10 ]

 OEINTS: Overlap, kinetic, potential, dipole, and quadrupole integrals
         stored in file 35.

      Computing two-electron integrals...done
      Computed 512 non-zero two-electron integrals.
        Stored in file 33.

	Batch   1 pq = [       0,      55] index = [             0,1540]
  ==> DiskJK: Disk-Based J/K Matrices <==

    J tasked:                  Yes
    K tasked:                  Yes
    wK tasked:                  No
    Memory (MB):               183
    Schwarz Cutoff:          1E-12

   @RHF iter   6:    -0.86533011483814    2.17247e-05   6.27971e-06 DIIS
   @RHF iter   7:    -0.86533011898884   -4.15070e-09   1.05288e-06 DIIS
   @RHF iter   8:    -0.86533011911714   -1.28308e-10   2.63729e-08 DIIS
   @RHF iter   9:    -0.86533011911721   -6.41709e-14   2.35764e-13 DIIS

  ==> Post-Iterations <==

    Orbital Energies (a.u.)
    -----------------------

    Doubly Occupied:                                                      

       1A     -0.349336  

    Virtual:                                                              

       2A     -0.084657     3A      0.624634     4A      0.667771  
       5A      1.453187     6A      1.463173     7A      1.463173  
       8A      1.470798     9A      1.470798    10A      1.523698  

    Final Occupation by Irrep:
              A 
    DOCC [     1 ]

  Energy converged.

  @RHF Final Energy:    -0.86533011911721

   => Energetics <=

    Nuclear Repulsion Energy =              0.2116708834360000
    One-Electron Energy =                  -1.4553308342191240
    Two-Electron Energy =                   0.3783298316659159
    DFT Exchange-Correlation Energy =       0.0000000000000000
    Empirical Dispersion Energy =           0.0000000000000000
    PCM Polarization Energy =               0.0000000000000000
    EFP Energy =                            0.0000000000000000
    Total Energy =                         -0.8653301191172080

    Alert: EFP and PCM quantities not currently incorporated into SCF psivars.

Properties will be evaluated at   0.000000,   0.000000,   0.000000 Bohr
  ==> Properties <==


Properties computed using the SCF density matrix

  Nuclear Dipole Moment: (a.u.)
     X:     0.0000      Y:     0.0000      Z:     0.0000

  Electronic Dipole Moment: (a.u.)
     X:    -0.0000      Y:    -0.0000      Z:    -0.0000

  Dipole Moment: (a.u.)
     X:    -0.0000      Y:    -0.0000      Z:    -0.0000     Total:     0.0000

  Dipole Moment: (Debye)
     X:    -0.0000      Y:    -0.0000      Z:    -0.0000     Total:     0.0000


  Saving occupied orbitals to File 180.

*** tstop() called on Kevins-MacBook-Pro.local at Sun Apr 12 15:46:07 2015
Module time:
	user time   =       0.18 seconds =       0.00 minutes
	system time =       0.01 seconds =       0.00 minutes
	total time  =          1 seconds =       0.02 minutes
Total time:
	user time   =       0.40 seconds =       0.01 minutes
	system time =       0.02 seconds =       0.00 minutes
	total time  =          1 seconds =       0.02 minutes
Reading options from the SCF block
Calling plugin scf.so.
    Molecular point group: c1
    Full point group: D_inf_h

    Geometry (in Angstrom), charge = 0, multiplicity = 1:

       Center              X                  Y                   Z       
    ------------   -----------------  -----------------  -----------------
           H          0.000000000000     0.000000000000    -1.250000000000
           H          0.000000000000     0.000000000000     1.250000000000


    Nuclear repulsion energy:       0.21167088

  ## Overlap (Symmetry 0) ##
  Irrep: 1 Size: 10 x 10

                 1                   2                   3                   4                   5

    1     1.00000000000000     0.68486025149275     0.00000000000000     0.00000000000000     0.00000000000000
    2     0.68486025149275     1.00000000000000     0.00000000000000     0.00000000000000     0.00000000000000
    3     0.00000000000000     0.00000000000000     1.00000000000000     0.00000000000000     0.00000000000000
    4     0.00000000000000     0.00000000000000     0.00000000000000     1.00000000000000     0.00000000000000
    5     0.00000000000000     0.00000000000000     0.00000000000000     0.00000000000000     1.00000000000000
    6     0.00471684750240     0.07760726124020     0.00504487156652     0.00000000000000     0.00000000000000
    7     0.07760726124020     0.25628415314370     0.06607960256047     0.00000000000000     0.00000000000000
    8    -0.00504487156652    -0.06607960256047    -0.00456194242482     0.00000000000000     0.00000000000000
    9     0.00000000000000     0.00000000000000     0.00000000000000     0.00029961478072     0.00000000000000
   10     0.00000000000000     0.00000000000000     0.00000000000000     0.00000000000000     0.00029961478072

                 6                   7                   8                   9                  10

    1     0.00471684750240     0.07760726124020    -0.00504487156652     0.00000000000000     0.00000000000000
    2     0.07760726124020     0.25628415314370    -0.06607960256047     0.00000000000000     0.00000000000000
    3     0.00504487156652     0.06607960256047    -0.00456194242482     0.00000000000000     0.00000000000000
    4     0.00000000000000     0.00000000000000     0.00000000000000     0.00029961478072     0.00000000000000
    5     0.00000000000000     0.00000000000000     0.00000000000000     0.00000000000000     0.00029961478072
    6     1.00000000000000     0.68486025149275    -0.00000000000000     0.00000000000000     0.00000000000000
    7     0.68486025149275     1.00000000000000    -0.00000000000000     0.00000000000000     0.00000000000000
    8    -0.00000000000000    -0.00000000000000     1.00000000000000     0.00000000000000     0.00000000000000
    9     0.00000000000000     0.00000000000000     0.00000000000000     1.00000000000000     0.00000000000000
   10     0.00000000000000     0.00000000000000     0.00000000000000     0.00000000000000     1.00000000000000



  ## Kinetic (Symmetry 0) ##
  Irrep: 1 Size: 10 x 10

                 1                   2                   3                   4                   5

    1     0.96945722711242     0.20123413106538     0.00000000000000     0.00000000000000     0.00000000000000
    2     0.20123413106538     0.18300000000000     0.00000000000000     0.00000000000000     0.00000000000000
    3     0.00000000000000     0.00000000000000     1.81750000000000     0.00000000000000     0.00000000000000
    4     0.00000000000000     0.00000000000000     0.00000000000000     1.81750000000000     0.00000000000000
    5     0.00000000000000     0.00000000000000     0.00000000000000     0.00000000000000     1.81750000000000
    6    -0.00752298750611    -0.01020384308727    -0.01024692585997     0.00000000000000     0.00000000000000
    7    -0.01020384308727     0.00433141895950     0.00232425608923     0.00000000000000     0.00000000000000
    8     0.01024692585997    -0.00232425608923     0.01508138585374     0.00000000000000     0.00000000000000
    9     0.00000000000000     0.00000000000000     0.00000000000000    -0.00122262618026     0.00000000000000
   10     0.00000000000000     0.00000000000000     0.00000000000000     0.00000000000000    -0.00122262618026

                 6                   7                   8                   9                  10

    1    -0.00752298750611    -0.01020384308727     0.01024692585997     0.00000000000000     0.00000000000000
    2    -0.01020384308727     0.00433141895950    -0.00232425608923     0.00000000000000     0.00000000000000
    3    -0.01024692585997     0.00232425608923     0.01508138585374     0.00000000000000     0.00000000000000
    4     0.00000000000000     0.00000000000000     0.00000000000000    -0.00122262618026     0.00000000000000
    5     0.00000000000000     0.00000000000000     0.00000000000000     0.00000000000000    -0.00122262618026
    6     0.96945722711242     0.20123413106538    -0.00000000000000     0.00000000000000     0.00000000000000
    7     0.20123413106538     0.18300000000000    -0.00000000000000     0.00000000000000     0.00000000000000
    8    -0.00000000000000    -0.00000000000000     1.81750000000000     0.00000000000000     0.00000000000000
    9     0.00000000000000     0.00000000000000     0.00000000000000     1.81750000000000     0.00000000000000
   10     0.00000000000000     0.00000000000000     0.00000000000000     0.00000000000000     1.81750000000000



  ## Potential (Symmetry 0) ##
  Irrep: 1 Size: 10 x 10

                 1                   2                   3                   4                   5

    1    -1.58953266808362    -0.79467211688866    -0.02818766500853     0.00000000000000     0.00000000000000
    2    -0.79467211688866    -0.76884461482811    -0.02644148768552     0.00000000000000     0.00000000000000
    3    -0.02818766500853    -0.02644148768552    -1.12527431741486     0.00000000000000     0.00000000000000
    4     0.00000000000000     0.00000000000000     0.00000000000000    -1.11549045763854     0.00000000000000
    5     0.00000000000000     0.00000000000000     0.00000000000000     0.00000000000000    -1.11549045763854
    6    -0.00402939620814    -0.08118605709035    -0.00430717767184     0.00000000000000     0.00000000000000
    7    -0.08118605709035    -0.19552766480214    -0.06233487085679     0.00000000000000     0.00000000000000
    8     0.00430717767184     0.06233487085679     0.00383131239738     0.00000000000000     0.00000000000000
    9     0.00000000000000     0.00000000000000     0.00000000000000    -0.00023804649961     0.00000000000000
   10     0.00000000000000     0.00000000000000     0.00000000000000     0.00000000000000    -0.00023804649961

                 6                   7                   8                   9                  10

    1    -0.00402939620814    -0.08118605709035     0.00430717767184     0.00000000000000     0.00000000000000
    2    -0.08118605709035    -0.19552766480214     0.06233487085679     0.00000000000000     0.00000000000000
    3    -0.00430717767184    -0.06233487085679     0.00383131239738     0.00000000000000     0.00000000000000
    4     0.00000000000000     0.00000000000000     0.00000000000000    -0.00023804649961     0.00000000000000
    5     0.00000000000000     0.00000000000000     0.00000000000000     0.00000000000000    -0.00023804649961
    6    -1.58953266808362    -0.79467211688866     0.02818766500853     0.00000000000000     0.00000000000000
    7    -0.79467211688866    -0.76884461482811     0.02644148768552     0.00000000000000     0.00000000000000
    8     0.02818766500853     0.02644148768552    -1.12527431741486     0.00000000000000     0.00000000000000
    9     0.00000000000000     0.00000000000000     0.00000000000000    -1.11549045763854     0.00000000000000
   10     0.00000000000000     0.00000000000000     0.00000000000000     0.00000000000000    -1.11549045763854



  ## One Electron Ints (Symmetry 0) ##
  Irrep: 1 Size: 10 x 10

                 1                   2                   3                   4                   5

    1    -0.62007544097119    -0.59343798582328    -0.02818766500853     0.00000000000000     0.00000000000000
    2    -0.59343798582328    -0.58584461482811    -0.02644148768552     0.00000000000000     0.00000000000000
    3    -0.02818766500853    -0.02644148768552     0.69222568258514     0.00000000000000     0.00000000000000
    4     0.00000000000000     0.00000000000000     0.00000000000000     0.70200954236146     0.00000000000000
    5     0.00000000000000     0.00000000000000     0.00000000000000     0.00000000000000     0.70200954236146
    6    -0.01155238371425    -0.09138990017762    -0.01455410353181     0.00000000000000     0.00000000000000
    7    -0.09138990017762    -0.19119624584264    -0.06001061476756     0.00000000000000     0.00000000000000
    8     0.01455410353181     0.06001061476756     0.01891269825112     0.00000000000000     0.00000000000000
    9     0.00000000000000     0.00000000000000     0.00000000000000    -0.00146067267987     0.00000000000000
   10     0.00000000000000     0.00000000000000     0.00000000000000     0.00000000000000    -0.00146067267987

                 6                   7                   8                   9                  10

    1    -0.01155238371425    -0.09138990017762     0.01455410353181     0.00000000000000     0.00000000000000
    2    -0.09138990017762    -0.19119624584264     0.06001061476756     0.00000000000000     0.00000000000000
    3    -0.01455410353181    -0.06001061476756     0.01891269825112     0.00000000000000     0.00000000000000
    4     0.00000000000000     0.00000000000000     0.00000000000000    -0.00146067267987     0.00000000000000
    5     0.00000000000000     0.00000000000000     0.00000000000000     0.00000000000000    -0.00146067267987
    6    -0.62007544097119    -0.59343798582328     0.02818766500853     0.00000000000000     0.00000000000000
    7    -0.59343798582328    -0.58584461482811     0.02644148768552     0.00000000000000     0.00000000000000
    8     0.02818766500853     0.02644148768552     0.69222568258514     0.00000000000000     0.00000000000000
    9     0.00000000000000     0.00000000000000     0.00000000000000     0.70200954236146     0.00000000000000
   10     0.00000000000000     0.00000000000000     0.00000000000000     0.00000000000000     0.70200954236146




	There are 0 unique integrals

  ## Fock (Symmetry 0) ##
  Irrep: 1 Size: 10 x 10

                 1                   2                   3                   4                   5

    1    -0.38627866166654    -0.35435878726536    -0.02976458484129    -0.00000000000000     0.00000000000000
    2    -0.35435878726536    -0.31087764907513     0.00226648200293    -0.00000000000000     0.00000000000000
    3    -0.02976458484129     0.00226648200293     0.70050104190062    -0.00000000000000     0.00000000000000
    4    -0.00000000000000    -0.00000000000000    -0.00000000000000     0.70201004301934     0.00000000000000
    5     0.00000000000000     0.00000000000000     0.00000000000000     0.00000000000000     0.70201004301934
    6     0.00564061600143     0.00719038934965     0.03941241270109    -0.00000000000000     0.00000000000000
    7     0.00719038934965    -0.08077201235159    -0.09383429169227     0.00000000000000     0.00000000000000
    8    -0.03941241270109     0.09383429169227     0.02307695752344    -0.00000000000000     0.00000000000000
    9    -0.00000000000000     0.00000000000000    -0.00000000000000    -0.00167100526497     0.00000000000000
   10     0.00000000000000     0.00000000000000     0.00000000000000     0.00000000000000    -0.00167100526497

                 6                   7                   8                   9                  10

    1     0.00564061600143     0.00719038934965    -0.03941241270109    -0.00000000000000     0.00000000000000
    2     0.00719038934965    -0.08077201235159     0.09383429169227     0.00000000000000     0.00000000000000
    3     0.03941241270109    -0.09383429169227     0.02307695752344    -0.00000000000000     0.00000000000000
    4    -0.00000000000000     0.00000000000000    -0.00000000000000    -0.00167100526497     0.00000000000000
    5     0.00000000000000     0.00000000000000     0.00000000000000     0.00000000000000    -0.00167100526497
    6    -0.38627866166654    -0.35435878726536     0.02976458484129     0.00000000000000     0.00000000000000
    7    -0.35435878726536    -0.31087764907513    -0.00226648200293    -0.00000000000000     0.00000000000000
    8     0.02976458484129    -0.00226648200293     0.70050104190062     0.00000000000000     0.00000000000000
    9     0.00000000000000    -0.00000000000000     0.00000000000000     0.70201004301934     0.00000000000000
   10     0.00000000000000     0.00000000000000     0.00000000000000     0.00000000000000     0.70201004301934



  ## C (Symmetry 0) ##
  Irrep: 1 Size: 10 x 10

                 1                   2                   3                   4                   5

    1     0.34202564218296     0.41868749791743     0.03964097586291    -0.04536433791238     0.02492536675729
    2     0.48022693630883     0.31750068340611    -0.02034827838478     0.15445654831553    -0.08451339489402
    3     0.51126191978266    -0.48766764296733    -0.06902985027982     0.03459753760850    -0.02159169555957
    4    -0.43638894672806     0.54321052822419    -0.12036213218180     0.00010016606660     0.00003446574335
    5     0.02879718660920    -0.06898299375756     0.70304191146691     0.00000000000001     0.00000000000000
    6     0.03963042132997     0.00928979318991    -0.00207633409298     0.30399756847115    -0.93596573455218
    7    -0.11126276347425    -0.03830110607261     0.00574964961770    -0.91330427359826     0.44823157749464
    8     0.01710076975294     0.00845519324373    -0.00106458199982     0.23830062854182    -0.67350220683651
    9     0.00006537429076    -0.00008137695348     0.00001803113733    -0.66863232922398    -0.23006703801262
   10    -0.07292948104677     0.09581531328275     0.69667537433023    -0.00000000000000    -0.00000000000000

                 6                   7                   8                   9                  10

    1     0.92206580994938     0.88394045083987    -0.03637736172139    -0.03426214015828    -0.00734039546555
    2    -0.98788762376502    -0.86008092604176     0.01208788590526     0.13148983651548    -0.01776638872514
    3     0.49899635272270    -0.49750591212701     0.06896083768322     0.03325488104054    -0.01768959990893
    4     0.43638894672807    -0.54321052822419    -0.12036213218180    -0.00010016606660    -0.00003446574335
    5     0.02877533715030    -0.06895428916847    -0.70325067727147     0.00000000000000     0.00000000000000
    6    -0.02333164301634    -0.04121237543060     0.00172207606914     0.30231312719238    -0.93107032708587
    7     0.11711187098610     0.14487926480482    -0.00446469259574    -0.90818829008009     0.43336325039505
    8    -0.03796190641302    -0.03571083887896     0.00075477013059    -0.22300566469562     0.66716920788452
    9    -0.00006537429076     0.00008137695347     0.00001803113732     0.66863232922399     0.23006703801259
   10     0.07292085625704    -0.09579464925790     0.69688604735777     0.00000000000000     0.00000000000000




 In Bisection function HOMO = -0.736  LUMO =  0.744

 0.00412 = (-0.73579 + 0.74403)/2.0
 sum -  nocc_ = 2.05327953
 On Iteration in Bisection 0
 a: 2.05328  b:-0.20195

 -0.36583 = (-0.73579 + 0.00412)/2.0
 sum -  nocc_ = 0.99833501
 On Iteration in Bisection 1
 a: 0.99834  b:-0.20195

 -0.55081 = (-0.73579 + -0.36583)/2.0
 sum -  nocc_ = 0.83665197
 On Iteration in Bisection 2
 a: 0.83665  b:-0.20195

 -0.64330 = (-0.73579 + -0.55081)/2.0
 sum -  nocc_ = 0.45817784
 On Iteration in Bisection 3
 a: 0.45818  b:-0.20195

 -0.68954 = (-0.73579 + -0.64330)/2.0
 sum -  nocc_ = 0.14329959
 On Iteration in Bisection 4
 a: 0.14330  b:-0.20195

 -0.71267 = (-0.73579 + -0.68954)/2.0
 sum -  nocc_ = -0.03018634
 On Iteration in Bisection 5
 a: -0.03019  b:-0.20195

 -0.70111 = (-0.71267 + -0.68954)/2.0
 sum -  nocc_ = 0.05696396
 On Iteration in Bisection 6
 a: 0.05696  b:-0.03019

 -0.70689 = (-0.71267 + -0.70111)/2.0
 sum -  nocc_ = 0.01341276
 On Iteration in Bisection 7
 a: 0.01341  b:-0.03019

 -0.70978 = (-0.71267 + -0.70689)/2.0
 sum -  nocc_ = -0.00839062
 On Iteration in Bisection 8
 a: -0.00839  b:-0.03019

 -0.70833 = (-0.70978 + -0.70689)/2.0
 sum -  nocc_ = 0.00251134
 On Iteration in Bisection 9
 a: 0.00251  b:-0.00839

 -0.70905 = (-0.70978 + -0.70833)/2.0
 sum -  nocc_ = -0.00293973
 On Iteration in Bisection 10
 a: -0.00294  b:-0.00839

 -0.70869 = (-0.70905 + -0.70833)/2.0
 sum -  nocc_ = -0.00021420
 On Iteration in Bisection 11
 a: -0.00021  b:-0.00294

 -0.70851 = (-0.70869 + -0.70833)/2.0
 sum -  nocc_ = 0.00114857
 On Iteration in Bisection 12
 a: 0.00115  b:-0.00021

 -0.70860 = (-0.70869 + -0.70851)/2.0
 sum -  nocc_ = 0.00046719
 On Iteration in Bisection 13
 a: 0.00047  b:-0.00021

 -0.70865 = (-0.70869 + -0.70860)/2.0
 sum -  nocc_ = 0.00012650
 On Iteration in Bisection 14
 a: 0.00013  b:-0.00021

 -0.70867 = (-0.70869 + -0.70865)/2.0
 sum -  nocc_ = -0.00004385
 On Iteration in Bisection 15
 a: -0.00004  b:-0.00021

 -0.70866 = (-0.70867 + -0.70865)/2.0
 sum -  nocc_ = 0.00004132
 On Iteration in Bisection 16
 a: 0.00004  b:-0.00004

 -0.70866 = (-0.70867 + -0.70866)/2.0
 sum -  nocc_ = -0.00000126
 On Iteration in Bisection 17
 a: -0.00000  b:-0.00004

 -0.70866 = (-0.70866 + -0.70866)/2.0
 sum -  nocc_ = 0.00002003
 On Iteration in Bisection 18
 a: 0.00002  b:-0.00000

 -0.70866 = (-0.70866 + -0.70866)/2.0
 sum -  nocc_ = 0.00000938
 On Iteration in Bisection 19
 a: 0.00001  b:-0.00000

 -0.70866 = (-0.70866 + -0.70866)/2.0
 sum -  nocc_ = 0.00000406
 On Iteration in Bisection 20
 a: 0.00000  b:-0.00000

 -0.70866 = (-0.70866 + -0.70866)/2.0
 sum -  nocc_ = 0.00000140
 On Iteration in Bisection 21
 a: 0.00000  b:-0.00000

 -0.70866 = (-0.70866 + -0.70866)/2.0
 sum -  nocc_ = 0.00000007
 On Iteration in Bisection 22
 a: 0.00000  b:-0.00000

 -0.70866 = (-0.70866 + -0.70866)/2.0
 sum -  nocc_ = -0.00000060
 On Iteration in Bisection 23
 a: -0.00000  b:-0.00000

 -0.70866 = (-0.70866 + -0.70866)/2.0
 sum -  nocc_ = -0.00000027
 On Iteration in Bisection 24
 a: -0.00000  b:-0.00000

 -0.70866 = (-0.70866 + -0.70866)/2.0
 sum -  nocc_ = -0.00000010
 On Iteration in Bisection 25
 a: -0.00000  b:-0.00000

 -0.70866 = (-0.70866 + -0.70866)/2.0
 sum -  nocc_ = -0.00000002
 On Iteration in Bisection 26
 a: -0.00000  b:-0.00000

 -0.70866 = (-0.70866 + -0.70866)/2.0
 sum -  nocc_ = 0.00000002
 On Iteration in Bisection 27
 a: 0.00000  b:-0.00000

 -0.70866 = (-0.70866 + -0.70866)/2.0
 sum -  nocc_ = 0.00000000
 ef = -0.70866 sum = 1.00000 

 Iter: 0  T:    20000.000  val:-0.708665  sumni 0.00000
 ne = 1.0000

Nuc Replusion =       0.211670883436
 1st iteration =      -0.030989174359
 In Bisection function HOMO = -0.276  LUMO =  1.944

 0.83422 = (-0.27570 + 1.94413)/2.0
 sum -  nocc_ = 2.09538408
 On Iteration in Bisection 0
 a: 2.09538  b:-0.49773

 0.27926 = (-0.27570 + 0.83422)/2.0
 sum -  nocc_ = 1.03589645
 On Iteration in Bisection 1
 a: 1.03590  b:-0.49773

 0.00178 = (-0.27570 + 0.27926)/2.0
 sum -  nocc_ = 0.14220451
 On Iteration in Bisection 2
 a: 0.14220  b:-0.49773

 -0.13696 = (-0.27570 + 0.00178)/2.0
 sum -  nocc_ = -0.08060910
 On Iteration in Bisection 3
 a: -0.08061  b:-0.49773

 -0.06759 = (-0.13696 + 0.00178)/2.0
 sum -  nocc_ = 0.02144847
 On Iteration in Bisection 4
 a: 0.02145  b:-0.08061

 -0.10228 = (-0.13696 + -0.06759)/2.0
 sum -  nocc_ = -0.02668248
 On Iteration in Bisection 5
 a: -0.02668  b:-0.08061

 -0.08494 = (-0.10228 + -0.06759)/2.0
 sum -  nocc_ = -0.00254987
 On Iteration in Bisection 6
 a: -0.00255  b:-0.02668

 -0.07626 = (-0.08494 + -0.06759)/2.0
 sum -  nocc_ = 0.00938333
 On Iteration in Bisection 7
 a: 0.00938  b:-0.00255

 -0.08060 = (-0.08494 + -0.07626)/2.0
 sum -  nocc_ = 0.00341058
 On Iteration in Bisection 8
 a: 0.00341  b:-0.00255

 -0.08277 = (-0.08494 + -0.08060)/2.0
 sum -  nocc_ = 0.00043011
 On Iteration in Bisection 9
 a: 0.00043  b:-0.00255

 -0.08385 = (-0.08494 + -0.08277)/2.0
 sum -  nocc_ = -0.00105978
 On Iteration in Bisection 10
 a: -0.00106  b:-0.00255

 -0.08331 = (-0.08385 + -0.08277)/2.0
 sum -  nocc_ = -0.00031483
 On Iteration in Bisection 11
 a: -0.00031  b:-0.00106

 -0.08304 = (-0.08331 + -0.08277)/2.0
 sum -  nocc_ = 0.00005764
 On Iteration in Bisection 12
 a: 0.00006  b:-0.00031

 -0.08317 = (-0.08331 + -0.08304)/2.0
 sum -  nocc_ = -0.00012859
 On Iteration in Bisection 13
 a: -0.00013  b:-0.00031

 -0.08311 = (-0.08317 + -0.08304)/2.0
 sum -  nocc_ = -0.00003548
 On Iteration in Bisection 14
 a: -0.00004  b:-0.00013

 -0.08307 = (-0.08311 + -0.08304)/2.0
 sum -  nocc_ = 0.00001108
 On Iteration in Bisection 15
 a: 0.00001  b:-0.00004

 -0.08309 = (-0.08311 + -0.08307)/2.0
 sum -  nocc_ = -0.00001220
 On Iteration in Bisection 16
 a: -0.00001  b:-0.00004

 -0.08308 = (-0.08309 + -0.08307)/2.0
 sum -  nocc_ = -0.00000056
 On Iteration in Bisection 17
 a: -0.00000  b:-0.00001

 -0.08308 = (-0.08308 + -0.08307)/2.0
 sum -  nocc_ = 0.00000526
 On Iteration in Bisection 18
 a: 0.00001  b:-0.00000

 -0.08308 = (-0.08308 + -0.08308)/2.0
 sum -  nocc_ = 0.00000235
 On Iteration in Bisection 19
 a: 0.00000  b:-0.00000

 -0.08308 = (-0.08308 + -0.08308)/2.0
 sum -  nocc_ = 0.00000090
 On Iteration in Bisection 20
 a: 0.00000  b:-0.00000

 -0.08308 = (-0.08308 + -0.08308)/2.0
 sum -  nocc_ = 0.00000017
 On Iteration in Bisection 21
 a: 0.00000  b:-0.00000

 -0.08308 = (-0.08308 + -0.08308)/2.0
 sum -  nocc_ = -0.00000019
 On Iteration in Bisection 22
 a: -0.00000  b:-0.00000

 -0.08308 = (-0.08308 + -0.08308)/2.0
 sum -  nocc_ = -0.00000001
 On Iteration in Bisection 23
 a: -0.00000  b:-0.00000

 -0.08308 = (-0.08308 + -0.08308)/2.0
 sum -  nocc_ = 0.00000008
 On Iteration in Bisection 24
 a: 0.00000  b:-0.00000

 -0.08308 = (-0.08308 + -0.08308)/2.0
 sum -  nocc_ = 0.00000003
 On Iteration in Bisection 25
 a: 0.00000  b:-0.00000

 -0.08308 = (-0.08308 + -0.08308)/2.0
 sum -  nocc_ = 0.00000001
 On Iteration in Bisection 26
 a: 0.00000  b:-0.00000

 -0.08308 = (-0.08308 + -0.08308)/2.0
 sum -  nocc_ = 0.00000000
 ef = -0.08308 sum = 1.00000 

 Iter: 0  T:    20000.000  val:-0.083081  sumni 0.00000
 ne = 1.0000

 iter:1  failiter:1  energy:     -0.963646197712  total:     -0.751975314276  error:     -0.098316078595
 In Bisection function HOMO = -0.297  LUMO =  1.864

 0.78336 = (-0.29717 + 1.86389)/2.0
 sum -  nocc_ = 2.15824323
 On Iteration in Bisection 0
 a: 2.15824  b:-0.44757

 0.24309 = (-0.29717 + 0.78336)/2.0
 sum -  nocc_ = 1.05602926
 On Iteration in Bisection 1
 a: 1.05603  b:-0.44757

 -0.02704 = (-0.29717 + 0.24309)/2.0
 sum -  nocc_ = 0.78451790
 On Iteration in Bisection 2
 a: 0.78452  b:-0.44757

 -0.16211 = (-0.29717 + -0.02704)/2.0
 sum -  nocc_ = 0.21234420
 On Iteration in Bisection 3
 a: 0.21234  b:-0.44757

 -0.22964 = (-0.29717 + -0.16211)/2.0
 sum -  nocc_ = -0.11763396
 On Iteration in Bisection 4
 a: -0.11763  b:-0.44757

 -0.19587 = (-0.22964 + -0.16211)/2.0
 sum -  nocc_ = 0.04698113
 On Iteration in Bisection 5
 a: 0.04698  b:-0.11763

 -0.21276 = (-0.22964 + -0.19587)/2.0
 sum -  nocc_ = -0.03524173
 On Iteration in Bisection 6
 a: -0.03524  b:-0.11763

 -0.20432 = (-0.21276 + -0.19587)/2.0
 sum -  nocc_ = 0.00586540
 On Iteration in Bisection 7
 a: 0.00587  b:-0.03524

 -0.20854 = (-0.21276 + -0.20432)/2.0
 sum -  nocc_ = -0.01468584
 On Iteration in Bisection 8
 a: -0.01469  b:-0.03524

 -0.20643 = (-0.20854 + -0.20432)/2.0
 sum -  nocc_ = -0.00441006
 On Iteration in Bisection 9
 a: -0.00441  b:-0.01469

 -0.20537 = (-0.20643 + -0.20432)/2.0
 sum -  nocc_ = 0.00072765
 On Iteration in Bisection 10
 a: 0.00073  b:-0.00441

 -0.20590 = (-0.20643 + -0.20537)/2.0
 sum -  nocc_ = -0.00184120
 On Iteration in Bisection 11
 a: -0.00184  b:-0.00441

 -0.20563 = (-0.20590 + -0.20537)/2.0
 sum -  nocc_ = -0.00055677
 On Iteration in Bisection 12
 a: -0.00056  b:-0.00184

 -0.20550 = (-0.20563 + -0.20537)/2.0
 sum -  nocc_ = 0.00008544
 On Iteration in Bisection 13
 a: 0.00009  b:-0.00056

 -0.20557 = (-0.20563 + -0.20550)/2.0
 sum -  nocc_ = -0.00023567
 On Iteration in Bisection 14
 a: -0.00024  b:-0.00056

 -0.20554 = (-0.20557 + -0.20550)/2.0
 sum -  nocc_ = -0.00007511
 On Iteration in Bisection 15
 a: -0.00008  b:-0.00024

 -0.20552 = (-0.20554 + -0.20550)/2.0
 sum -  nocc_ = 0.00000516
 On Iteration in Bisection 16
 a: 0.00001  b:-0.00008

 -0.20553 = (-0.20554 + -0.20552)/2.0
 sum -  nocc_ = -0.00003498
 On Iteration in Bisection 17
 a: -0.00003  b:-0.00008

 -0.20552 = (-0.20553 + -0.20552)/2.0
 sum -  nocc_ = -0.00001491
 On Iteration in Bisection 18
 a: -0.00001  b:-0.00003

 -0.20552 = (-0.20552 + -0.20552)/2.0
 sum -  nocc_ = -0.00000487
 On Iteration in Bisection 19
 a: -0.00000  b:-0.00001

 -0.20552 = (-0.20552 + -0.20552)/2.0
 sum -  nocc_ = 0.00000015
 On Iteration in Bisection 20
 a: 0.00000  b:-0.00000

 -0.20552 = (-0.20552 + -0.20552)/2.0
 sum -  nocc_ = -0.00000236
 On Iteration in Bisection 21
 a: -0.00000  b:-0.00000

 -0.20552 = (-0.20552 + -0.20552)/2.0
 sum -  nocc_ = -0.00000111
 On Iteration in Bisection 22
 a: -0.00000  b:-0.00000

 -0.20552 = (-0.20552 + -0.20552)/2.0
 sum -  nocc_ = -0.00000048
 On Iteration in Bisection 23
 a: -0.00000  b:-0.00000

 -0.20552 = (-0.20552 + -0.20552)/2.0
 sum -  nocc_ = -0.00000017
 On Iteration in Bisection 24
 a: -0.00000  b:-0.00000

 -0.20552 = (-0.20552 + -0.20552)/2.0
 sum -  nocc_ = -0.00000001
 On Iteration in Bisection 25
 a: -0.00000  b:-0.00000

 -0.20552 = (-0.20552 + -0.20552)/2.0
 sum -  nocc_ = 0.00000007
 On Iteration in Bisection 26
 a: 0.00000  b:-0.00000

 -0.20552 = (-0.20552 + -0.20552)/2.0
 sum -  nocc_ = 0.00000003
 On Iteration in Bisection 27
 a: 0.00000  b:-0.00000

 -0.20552 = (-0.20552 + -0.20552)/2.0
 sum -  nocc_ = 0.00000001
 ef = -0.20552 sum = 1.00000 

 Iter: 1  T:    20000.000  val:-0.205521  sumni 0.00000
 ne = 1.0000

 iter:2  failiter:2  energy:     -0.971572418726  total:     -0.759901535290  error:     -0.007926221014
 In Bisection function HOMO = -0.285  LUMO =  1.729

 0.72187 = (-0.28511 + 1.72886)/2.0
 sum -  nocc_ = 2.17659425
 On Iteration in Bisection 0
 a: 2.17659  b:-0.42066

 0.21838 = (-0.28511 + 0.72187)/2.0
 sum -  nocc_ = 1.00725739
 On Iteration in Bisection 1
 a: 1.00726  b:-0.42066

 -0.03337 = (-0.28511 + 0.21838)/2.0
 sum -  nocc_ = 0.80284640
 On Iteration in Bisection 2
 a: 0.80285  b:-0.42066

 -0.15924 = (-0.28511 + -0.03337)/2.0
 sum -  nocc_ = 0.26555370
 On Iteration in Bisection 3
 a: 0.26555  b:-0.42066

 -0.22218 = (-0.28511 + -0.15924)/2.0
 sum -  nocc_ = -0.08134403
 On Iteration in Bisection 4
 a: -0.08134  b:-0.42066

 -0.19071 = (-0.22218 + -0.15924)/2.0
 sum -  nocc_ = 0.09290007
 On Iteration in Bisection 5
 a: 0.09290  b:-0.08134

 -0.20644 = (-0.22218 + -0.19071)/2.0
 sum -  nocc_ = 0.00578746
 On Iteration in Bisection 6
 a: 0.00579  b:-0.08134

 -0.21431 = (-0.22218 + -0.20644)/2.0
 sum -  nocc_ = -0.03779426
 On Iteration in Bisection 7
 a: -0.03779  b:-0.08134

 -0.21038 = (-0.21431 + -0.20644)/2.0
 sum -  nocc_ = -0.01600506
 On Iteration in Bisection 8
 a: -0.01601  b:-0.03779

 -0.20841 = (-0.21038 + -0.20644)/2.0
 sum -  nocc_ = -0.00510894
 On Iteration in Bisection 9
 a: -0.00511  b:-0.01601

 -0.20743 = (-0.20841 + -0.20644)/2.0
 sum -  nocc_ = 0.00033926
 On Iteration in Bisection 10
 a: 0.00034  b:-0.00511

 -0.20792 = (-0.20841 + -0.20743)/2.0
 sum -  nocc_ = -0.00238484
 On Iteration in Bisection 11
 a: -0.00238  b:-0.00511

 -0.20767 = (-0.20792 + -0.20743)/2.0
 sum -  nocc_ = -0.00102279
 On Iteration in Bisection 12
 a: -0.00102  b:-0.00238

 -0.20755 = (-0.20767 + -0.20743)/2.0
 sum -  nocc_ = -0.00034177
 On Iteration in Bisection 13
 a: -0.00034  b:-0.00102

 -0.20749 = (-0.20755 + -0.20743)/2.0
 sum -  nocc_ = -0.00000125
 On Iteration in Bisection 14
 a: -0.00000  b:-0.00034

 -0.20746 = (-0.20749 + -0.20743)/2.0
 sum -  nocc_ = 0.00016900
 On Iteration in Bisection 15
 a: 0.00017  b:-0.00000

 -0.20747 = (-0.20749 + -0.20746)/2.0
 sum -  nocc_ = 0.00008387
 On Iteration in Bisection 16
 a: 0.00008  b:-0.00000

 -0.20748 = (-0.20749 + -0.20747)/2.0
 sum -  nocc_ = 0.00004131
 On Iteration in Bisection 17
 a: 0.00004  b:-0.00000

 -0.20748 = (-0.20749 + -0.20748)/2.0
 sum -  nocc_ = 0.00002003
 On Iteration in Bisection 18
 a: 0.00002  b:-0.00000

 -0.20749 = (-0.20749 + -0.20748)/2.0
 sum -  nocc_ = 0.00000939
 On Iteration in Bisection 19
 a: 0.00001  b:-0.00000

 -0.20749 = (-0.20749 + -0.20749)/2.0
 sum -  nocc_ = 0.00000407
 On Iteration in Bisection 20
 a: 0.00000  b:-0.00000

 -0.20749 = (-0.20749 + -0.20749)/2.0
 sum -  nocc_ = 0.00000141
 On Iteration in Bisection 21
 a: 0.00000  b:-0.00000

 -0.20749 = (-0.20749 + -0.20749)/2.0
 sum -  nocc_ = 0.00000008
 On Iteration in Bisection 22
 a: 0.00000  b:-0.00000

 -0.20749 = (-0.20749 + -0.20749)/2.0
 sum -  nocc_ = -0.00000059
 On Iteration in Bisection 23
 a: -0.00000  b:-0.00000

 -0.20749 = (-0.20749 + -0.20749)/2.0
 sum -  nocc_ = -0.00000026
 On Iteration in Bisection 24
 a: -0.00000  b:-0.00000

 -0.20749 = (-0.20749 + -0.20749)/2.0
 sum -  nocc_ = -0.00000009
 On Iteration in Bisection 25
 a: -0.00000  b:-0.00000

 -0.20749 = (-0.20749 + -0.20749)/2.0
 sum -  nocc_ = -0.00000001
 ef = -0.20749 sum = 1.00000 

 Iter: 2  T:    20000.000  val:-0.207488  sumni 0.00000
 ne = 1.0000

 iter:3  failiter:3  energy:     -0.961428967854  total:     -0.749758084418  error:      0.010143450873
 In Bisection function HOMO = -0.291  LUMO =  1.642

 0.67520 = (-0.29125 + 1.64166)/2.0
 sum -  nocc_ = 2.11388041
 On Iteration in Bisection 0
 a: 2.11388  b:-0.42165

 0.19198 = (-0.29125 + 0.67520)/2.0
 sum -  nocc_ = 0.99771024
 On Iteration in Bisection 1
 a: 0.99771  b:-0.42165

 -0.04963 = (-0.29125 + 0.19198)/2.0
 sum -  nocc_ = 0.77265181
 On Iteration in Bisection 2
 a: 0.77265  b:-0.42165

 -0.17044 = (-0.29125 + -0.04963)/2.0
 sum -  nocc_ = 0.23487629
 On Iteration in Bisection 3
 a: 0.23488  b:-0.42165

 -0.23084 = (-0.29125 + -0.17044)/2.0
 sum -  nocc_ = -0.09737291
 On Iteration in Bisection 4
 a: -0.09737  b:-0.42165

 -0.20064 = (-0.23084 + -0.17044)/2.0
 sum -  nocc_ = 0.06924303
 On Iteration in Bisection 5
 a: 0.06924  b:-0.09737

 -0.21574 = (-0.23084 + -0.20064)/2.0
 sum -  nocc_ = -0.01408578
 On Iteration in Bisection 6
 a: -0.01409  b:-0.09737

 -0.20819 = (-0.21574 + -0.20064)/2.0
 sum -  nocc_ = 0.02758837
 On Iteration in Bisection 7
 a: 0.02759  b:-0.01409

 -0.21197 = (-0.21574 + -0.20819)/2.0
 sum -  nocc_ = 0.00675187
 On Iteration in Bisection 8
 a: 0.00675  b:-0.01409

 -0.21386 = (-0.21574 + -0.21197)/2.0
 sum -  nocc_ = -0.00366703
 On Iteration in Bisection 9
 a: -0.00367  b:-0.01409

 -0.21291 = (-0.21386 + -0.21197)/2.0
 sum -  nocc_ = 0.00154243
 On Iteration in Bisection 10
 a: 0.00154  b:-0.00367

 -0.21338 = (-0.21386 + -0.21291)/2.0
 sum -  nocc_ = -0.00106231
 On Iteration in Bisection 11
 a: -0.00106  b:-0.00367

 -0.21315 = (-0.21338 + -0.21291)/2.0
 sum -  nocc_ = 0.00024006
 On Iteration in Bisection 12
 a: 0.00024  b:-0.00106

 -0.21327 = (-0.21338 + -0.21315)/2.0
 sum -  nocc_ = -0.00041112
 On Iteration in Bisection 13
 a: -0.00041  b:-0.00106

 -0.21321 = (-0.21327 + -0.21315)/2.0
 sum -  nocc_ = -0.00008553
 On Iteration in Bisection 14
 a: -0.00009  b:-0.00041

 -0.21318 = (-0.21321 + -0.21315)/2.0
 sum -  nocc_ = 0.00007727
 On Iteration in Bisection 15
 a: 0.00008  b:-0.00009

 -0.21319 = (-0.21321 + -0.21318)/2.0
 sum -  nocc_ = -0.00000413
 On Iteration in Bisection 16
 a: -0.00000  b:-0.00009

 -0.21318 = (-0.21319 + -0.21318)/2.0
 sum -  nocc_ = 0.00003657
 On Iteration in Bisection 17
 a: 0.00004  b:-0.00000

 -0.21319 = (-0.21319 + -0.21318)/2.0
 sum -  nocc_ = 0.00001622
 On Iteration in Bisection 18
 a: 0.00002  b:-0.00000

 -0.21319 = (-0.21319 + -0.21319)/2.0
 sum -  nocc_ = 0.00000604
 On Iteration in Bisection 19
 a: 0.00001  b:-0.00000

 -0.21319 = (-0.21319 + -0.21319)/2.0
 sum -  nocc_ = 0.00000095
 On Iteration in Bisection 20
 a: 0.00000  b:-0.00000

 -0.21319 = (-0.21319 + -0.21319)/2.0
 sum -  nocc_ = -0.00000159
 On Iteration in Bisection 21
 a: -0.00000  b:-0.00000

 -0.21319 = (-0.21319 + -0.21319)/2.0
 sum -  nocc_ = -0.00000032
 On Iteration in Bisection 22
 a: -0.00000  b:-0.00000

 -0.21319 = (-0.21319 + -0.21319)/2.0
 sum -  nocc_ = 0.00000032
 On Iteration in Bisection 23
 a: 0.00000  b:-0.00000

 -0.21319 = (-0.21319 + -0.21319)/2.0
 sum -  nocc_ = 0.00000000
 ef = -0.21319 sum = 1.00000 

 Iter: 3  T:    20000.000  val:-0.213191  sumni 0.00000
 ne = 1.0000

 iter:4  failiter:4  energy:     -0.969199952090  total:     -0.757529068654  error:     -0.007770984236
 In Bisection function HOMO = -0.299  LUMO =  1.584

 0.64266 = (-0.29907 + 1.58440)/2.0
 sum -  nocc_ = 1.97488722
 On Iteration in Bisection 0
 a: 1.97489  b:-0.43373

 0.17180 = (-0.29907 + 0.64266)/2.0
 sum -  nocc_ = 0.99292396
 On Iteration in Bisection 1
 a: 0.99292  b:-0.43373

 -0.06364 = (-0.29907 + 0.17180)/2.0
 sum -  nocc_ = 0.72129105
 On Iteration in Bisection 2
 a: 0.72129  b:-0.43373

 -0.18135 = (-0.29907 + -0.06364)/2.0
 sum -  nocc_ = 0.17801881
 On Iteration in Bisection 3
 a: 0.17802  b:-0.43373

 -0.24021 = (-0.29907 + -0.18135)/2.0
 sum -  nocc_ = -0.13068023
 On Iteration in Bisection 4
 a: -0.13068  b:-0.43373

 -0.21078 = (-0.24021 + -0.18135)/2.0
 sum -  nocc_ = 0.02369148
 On Iteration in Bisection 5
 a: 0.02369  b:-0.13068

 -0.22550 = (-0.24021 + -0.21078)/2.0
 sum -  nocc_ = -0.05349806
 On Iteration in Bisection 6
 a: -0.05350  b:-0.13068

 -0.21814 = (-0.22550 + -0.21078)/2.0
 sum -  nocc_ = -0.01490308
 On Iteration in Bisection 7
 a: -0.01490  b:-0.05350

 -0.21446 = (-0.21814 + -0.21078)/2.0
 sum -  nocc_ = 0.00439417
 On Iteration in Bisection 8
 a: 0.00439  b:-0.01490

 -0.21630 = (-0.21814 + -0.21446)/2.0
 sum -  nocc_ = -0.00525445
 On Iteration in Bisection 9
 a: -0.00525  b:-0.01490

 -0.21538 = (-0.21630 + -0.21446)/2.0
 sum -  nocc_ = -0.00043014
 On Iteration in Bisection 10
 a: -0.00043  b:-0.00525

 -0.21492 = (-0.21538 + -0.21446)/2.0
 sum -  nocc_ = 0.00198201
 On Iteration in Bisection 11
 a: 0.00198  b:-0.00043

 -0.21515 = (-0.21538 + -0.21492)/2.0
 sum -  nocc_ = 0.00077594
 On Iteration in Bisection 12
 a: 0.00078  b:-0.00043

 -0.21527 = (-0.21538 + -0.21515)/2.0
 sum -  nocc_ = 0.00017290
 On Iteration in Bisection 13
 a: 0.00017  b:-0.00043

 -0.21532 = (-0.21538 + -0.21527)/2.0
 sum -  nocc_ = -0.00012862
 On Iteration in Bisection 14
 a: -0.00013  b:-0.00043

 -0.21529 = (-0.21532 + -0.21527)/2.0
 sum -  nocc_ = 0.00002214
 On Iteration in Bisection 15
 a: 0.00002  b:-0.00013

 -0.21531 = (-0.21532 + -0.21529)/2.0
 sum -  nocc_ = -0.00005324
 On Iteration in Bisection 16
 a: -0.00005  b:-0.00013

 -0.21530 = (-0.21531 + -0.21529)/2.0
 sum -  nocc_ = -0.00001555
 On Iteration in Bisection 17
 a: -0.00002  b:-0.00005

 -0.21530 = (-0.21530 + -0.21529)/2.0
 sum -  nocc_ = 0.00000329
 On Iteration in Bisection 18
 a: 0.00000  b:-0.00002

 -0.21530 = (-0.21530 + -0.21530)/2.0
 sum -  nocc_ = -0.00000613
 On Iteration in Bisection 19
 a: -0.00001  b:-0.00002

 -0.21530 = (-0.21530 + -0.21530)/2.0
 sum -  nocc_ = -0.00000142
 On Iteration in Bisection 20
 a: -0.00000  b:-0.00001

 -0.21530 = (-0.21530 + -0.21530)/2.0
 sum -  nocc_ = 0.00000094
 On Iteration in Bisection 21
 a: 0.00000  b:-0.00000

 -0.21530 = (-0.21530 + -0.21530)/2.0
 sum -  nocc_ = -0.00000024
 On Iteration in Bisection 22
 a: -0.00000  b:-0.00000

 -0.21530 = (-0.21530 + -0.21530)/2.0
 sum -  nocc_ = 0.00000035
 On Iteration in Bisection 23
 a: 0.00000  b:-0.00000

 -0.21530 = (-0.21530 + -0.21530)/2.0
 sum -  nocc_ = 0.00000006
 On Iteration in Bisection 24
 a: 0.00000  b:-0.00000

 -0.21530 = (-0.21530 + -0.21530)/2.0
 sum -  nocc_ = -0.00000009
 On Iteration in Bisection 25
 a: -0.00000  b:-0.00000

 -0.21530 = (-0.21530 + -0.21530)/2.0
 sum -  nocc_ = -0.00000002
 On Iteration in Bisection 26
 a: -0.00000  b:-0.00000

 -0.21530 = (-0.21530 + -0.21530)/2.0
 sum -  nocc_ = 0.00000002
 On Iteration in Bisection 27
 a: 0.00000  b:-0.00000

 -0.21530 = (-0.21530 + -0.21530)/2.0
 sum -  nocc_ = 0.00000000
 ef = -0.21530 sum = 1.00000 

 Iter: 4  T:    20000.000  val:-0.215299  sumni 0.00000
 ne = 1.0000

 iter:5  failiter:5  energy:     -0.978311389604  total:     -0.766640506168  error:     -0.009111437514
 In Bisection function HOMO = -0.305  LUMO =  1.551

 0.62274 = (-0.30519 + 1.55068)/2.0
 sum -  nocc_ = 1.83901265
 On Iteration in Bisection 0
 a: 1.83901  b:-0.44308

 0.15877 = (-0.30519 + 0.62274)/2.0
 sum -  nocc_ = 0.98969008
 On Iteration in Bisection 1
 a: 0.98969  b:-0.44308

 -0.07321 = (-0.30519 + 0.15877)/2.0
 sum -  nocc_ = 0.67673170
 On Iteration in Bisection 2
 a: 0.67673  b:-0.44308

 -0.18920 = (-0.30519 + -0.07321)/2.0
 sum -  nocc_ = 0.13563114
 On Iteration in Bisection 3
 a: 0.13563  b:-0.44308

 -0.24720 = (-0.30519 + -0.18920)/2.0
 sum -  nocc_ = -0.15477717
 On Iteration in Bisection 4
 a: -0.15478  b:-0.44308

 -0.21820 = (-0.24720 + -0.18920)/2.0
 sum -  nocc_ = -0.00953598
 On Iteration in Bisection 5
 a: -0.00954  b:-0.15478

 -0.20370 = (-0.21820 + -0.18920)/2.0
 sum -  nocc_ = 0.06297808
 On Iteration in Bisection 6
 a: 0.06298  b:-0.00954

 -0.21095 = (-0.21820 + -0.20370)/2.0
 sum -  nocc_ = 0.02671257
 On Iteration in Bisection 7
 a: 0.02671  b:-0.00954

 -0.21457 = (-0.21820 + -0.21095)/2.0
 sum -  nocc_ = 0.00858759
 On Iteration in Bisection 8
 a: 0.00859  b:-0.00954

 -0.21639 = (-0.21820 + -0.21457)/2.0
 sum -  nocc_ = -0.00047418
 On Iteration in Bisection 9
 a: -0.00047  b:-0.00954

 -0.21548 = (-0.21639 + -0.21457)/2.0
 sum -  nocc_ = 0.00405668
 On Iteration in Bisection 10
 a: 0.00406  b:-0.00047

 -0.21593 = (-0.21639 + -0.21548)/2.0
 sum -  nocc_ = 0.00179125
 On Iteration in Bisection 11
 a: 0.00179  b:-0.00047

 -0.21616 = (-0.21639 + -0.21593)/2.0
 sum -  nocc_ = 0.00065853
 On Iteration in Bisection 12
 a: 0.00066  b:-0.00047

 -0.21627 = (-0.21639 + -0.21616)/2.0
 sum -  nocc_ = 0.00009217
 On Iteration in Bisection 13
 a: 0.00009  b:-0.00047

 -0.21633 = (-0.21639 + -0.21627)/2.0
 sum -  nocc_ = -0.00019101
 On Iteration in Bisection 14
 a: -0.00019  b:-0.00047

 -0.21630 = (-0.21633 + -0.21627)/2.0
 sum -  nocc_ = -0.00004942
 On Iteration in Bisection 15
 a: -0.00005  b:-0.00019

 -0.21629 = (-0.21630 + -0.21627)/2.0
 sum -  nocc_ = 0.00002138
 On Iteration in Bisection 16
 a: 0.00002  b:-0.00005

 -0.21629 = (-0.21630 + -0.21629)/2.0
 sum -  nocc_ = -0.00001402
 On Iteration in Bisection 17
 a: -0.00001  b:-0.00005

 -0.21629 = (-0.21629 + -0.21629)/2.0
 sum -  nocc_ = 0.00000368
 On Iteration in Bisection 18
 a: 0.00000  b:-0.00001

 -0.21629 = (-0.21629 + -0.21629)/2.0
 sum -  nocc_ = -0.00000517
 On Iteration in Bisection 19
 a: -0.00001  b:-0.00001

 -0.21629 = (-0.21629 + -0.21629)/2.0
 sum -  nocc_ = -0.00000075
 On Iteration in Bisection 20
 a: -0.00000  b:-0.00001

 -0.21629 = (-0.21629 + -0.21629)/2.0
 sum -  nocc_ = 0.00000147
 On Iteration in Bisection 21
 a: 0.00000  b:-0.00000

 -0.21629 = (-0.21629 + -0.21629)/2.0
 sum -  nocc_ = 0.00000036
 On Iteration in Bisection 22
 a: 0.00000  b:-0.00000

 -0.21629 = (-0.21629 + -0.21629)/2.0
 sum -  nocc_ = -0.00000019
 On Iteration in Bisection 23
 a: -0.00000  b:-0.00000

 -0.21629 = (-0.21629 + -0.21629)/2.0
 sum -  nocc_ = 0.00000008
 On Iteration in Bisection 24
 a: 0.00000  b:-0.00000

 -0.21629 = (-0.21629 + -0.21629)/2.0
 sum -  nocc_ = -0.00000005
 On Iteration in Bisection 25
 a: -0.00000  b:-0.00000

 -0.21629 = (-0.21629 + -0.21629)/2.0
 sum -  nocc_ = 0.00000002
 On Iteration in Bisection 26
 a: 0.00000  b:-0.00000

 -0.21629 = (-0.21629 + -0.21629)/2.0
 sum -  nocc_ = -0.00000002
 On Iteration in Bisection 27
 a: -0.00000  b:-0.00000

 -0.21629 = (-0.21629 + -0.21629)/2.0
 sum -  nocc_ = -0.00000000
 ef = -0.21629 sum = 1.00000 

 Iter: 5  T:    20000.000  val:-0.216292  sumni 0.00000
 ne = 1.0000

 iter:6  failiter:6  energy:     -0.985468519898  total:     -0.773797636462  error:     -0.007157130294
 In Bisection function HOMO = -0.309  LUMO =  1.533

 0.61223 = (-0.30893 + 1.53339)/2.0
 sum -  nocc_ = 1.75780835
 On Iteration in Bisection 0
 a: 1.75781  b:-0.44849

 0.15165 = (-0.30893 + 0.61223)/2.0
 sum -  nocc_ = 0.98760321
 On Iteration in Bisection 1
 a: 0.98760  b:-0.44849

 -0.07864 = (-0.30893 + 0.15165)/2.0
 sum -  nocc_ = 0.64764394
 On Iteration in Bisection 2
 a: 0.64764  b:-0.44849

 -0.19378 = (-0.30893 + -0.07864)/2.0
 sum -  nocc_ = 0.11102450
 On Iteration in Bisection 3
 a: 0.11102  b:-0.44849

 -0.25136 = (-0.30893 + -0.19378)/2.0
 sum -  nocc_ = -0.16841181
 On Iteration in Bisection 4
 a: -0.16841  b:-0.44849

 -0.22257 = (-0.25136 + -0.19378)/2.0
 sum -  nocc_ = -0.02849895
 On Iteration in Bisection 5
 a: -0.02850  b:-0.16841

 -0.20818 = (-0.22257 + -0.19378)/2.0
 sum -  nocc_ = 0.04118326
 On Iteration in Bisection 6
 a: 0.04118  b:-0.02850

 -0.21537 = (-0.22257 + -0.20818)/2.0
 sum -  nocc_ = 0.00633889
 On Iteration in Bisection 7
 a: 0.00634  b:-0.02850

 -0.21897 = (-0.22257 + -0.21537)/2.0
 sum -  nocc_ = -0.01107860
 On Iteration in Bisection 8
 a: -0.01108  b:-0.02850

 -0.21717 = (-0.21897 + -0.21537)/2.0
 sum -  nocc_ = -0.00236978
 On Iteration in Bisection 9
 a: -0.00237  b:-0.01108

 -0.21627 = (-0.21717 + -0.21537)/2.0
 sum -  nocc_ = 0.00198454
 On Iteration in Bisection 10
 a: 0.00198  b:-0.00237

 -0.21672 = (-0.21717 + -0.21627)/2.0
 sum -  nocc_ = -0.00019262
 On Iteration in Bisection 11
 a: -0.00019  b:-0.00237

 -0.21650 = (-0.21672 + -0.21627)/2.0
 sum -  nocc_ = 0.00089596
 On Iteration in Bisection 12
 a: 0.00090  b:-0.00019

 -0.21661 = (-0.21672 + -0.21650)/2.0
 sum -  nocc_ = 0.00035167
 On Iteration in Bisection 13
 a: 0.00035  b:-0.00019

 -0.21667 = (-0.21672 + -0.21661)/2.0
 sum -  nocc_ = 0.00007953
 On Iteration in Bisection 14
 a: 0.00008  b:-0.00019

 -0.21669 = (-0.21672 + -0.21667)/2.0
 sum -  nocc_ = -0.00005655
 On Iteration in Bisection 15
 a: -0.00006  b:-0.00019

 -0.21668 = (-0.21669 + -0.21667)/2.0
 sum -  nocc_ = 0.00001149
 On Iteration in Bisection 16
 a: 0.00001  b:-0.00006

 -0.21669 = (-0.21669 + -0.21668)/2.0
 sum -  nocc_ = -0.00002253
 On Iteration in Bisection 17
 a: -0.00002  b:-0.00006

 -0.21668 = (-0.21669 + -0.21668)/2.0
 sum -  nocc_ = -0.00000552
 On Iteration in Bisection 18
 a: -0.00001  b:-0.00002

 -0.21668 = (-0.21668 + -0.21668)/2.0
 sum -  nocc_ = 0.00000298
 On Iteration in Bisection 19
 a: 0.00000  b:-0.00001

 -0.21668 = (-0.21668 + -0.21668)/2.0
 sum -  nocc_ = -0.00000127
 On Iteration in Bisection 20
 a: -0.00000  b:-0.00001

 -0.21668 = (-0.21668 + -0.21668)/2.0
 sum -  nocc_ = 0.00000086
 On Iteration in Bisection 21
 a: 0.00000  b:-0.00000

 -0.21668 = (-0.21668 + -0.21668)/2.0
 sum -  nocc_ = -0.00000020
 On Iteration in Bisection 22
 a: -0.00000  b:-0.00000

 -0.21668 = (-0.21668 + -0.21668)/2.0
 sum -  nocc_ = 0.00000033
 On Iteration in Bisection 23
 a: 0.00000  b:-0.00000

 -0.21668 = (-0.21668 + -0.21668)/2.0
 sum -  nocc_ = 0.00000006
 On Iteration in Bisection 24
 a: 0.00000  b:-0.00000

 -0.21668 = (-0.21668 + -0.21668)/2.0
 sum -  nocc_ = -0.00000007
 On Iteration in Bisection 25
 a: -0.00000  b:-0.00000

 -0.21668 = (-0.21668 + -0.21668)/2.0
 sum -  nocc_ = -0.00000001
 ef = -0.21668 sum = 1.00000 

 Iter: 6  T:    20000.000  val:-0.216682  sumni 0.00000
 ne = 1.0000

 iter:7  failiter:7  energy:     -0.989906974716  total:     -0.778236091280  error:     -0.004438454819
 In Bisection function HOMO = -0.311  LUMO =  1.526

 0.60753 = (-0.31096 + 1.52601)/2.0
 sum -  nocc_ = 1.72103030
 On Iteration in Bisection 0
 a: 1.72103  b:-0.45132

 0.14829 = (-0.31096 + 0.60753)/2.0
 sum -  nocc_ = 0.98646586
 On Iteration in Bisection 1
 a: 0.98647  b:-0.45132

 -0.08134 = (-0.31096 + 0.14829)/2.0
 sum -  nocc_ = 0.63178604
 On Iteration in Bisection 2
 a: 0.63179  b:-0.45132

 -0.19615 = (-0.31096 + -0.08134)/2.0
 sum -  nocc_ = 0.09842083
 On Iteration in Bisection 3
 a: 0.09842  b:-0.45132

 -0.25355 = (-0.31096 + -0.19615)/2.0
 sum -  nocc_ = -0.17530275
 On Iteration in Bisection 4
 a: -0.17530  b:-0.45132

 -0.22485 = (-0.25355 + -0.19615)/2.0
 sum -  nocc_ = -0.03812020
 On Iteration in Bisection 5
 a: -0.03812  b:-0.17530

 -0.21050 = (-0.22485 + -0.19615)/2.0
 sum -  nocc_ = 0.03007873
 On Iteration in Bisection 6
 a: 0.03008  b:-0.03812

 -0.21767 = (-0.22485 + -0.21050)/2.0
 sum -  nocc_ = -0.00401826
 On Iteration in Bisection 7
 a: -0.00402  b:-0.03812

 -0.21409 = (-0.21767 + -0.21050)/2.0
 sum -  nocc_ = 0.01302821
 On Iteration in Bisection 8
 a: 0.01303  b:-0.00402

 -0.21588 = (-0.21767 + -0.21409)/2.0
 sum -  nocc_ = 0.00450479
 On Iteration in Bisection 9
 a: 0.00450  b:-0.00402

 -0.21678 = (-0.21767 + -0.21588)/2.0
 sum -  nocc_ = 0.00024326
 On Iteration in Bisection 10
 a: 0.00024  b:-0.00402

 -0.21722 = (-0.21767 + -0.21678)/2.0
 sum -  nocc_ = -0.00188750
 On Iteration in Bisection 11
 a: -0.00189  b:-0.00402

 -0.21700 = (-0.21722 + -0.21678)/2.0
 sum -  nocc_ = -0.00082212
 On Iteration in Bisection 12
 a: -0.00082  b:-0.00189

 -0.21689 = (-0.21700 + -0.21678)/2.0
 sum -  nocc_ = -0.00028943
 On Iteration in Bisection 13
 a: -0.00029  b:-0.00082

 -0.21683 = (-0.21689 + -0.21678)/2.0
 sum -  nocc_ = -0.00002308
 On Iteration in Bisection 14
 a: -0.00002  b:-0.00029

 -0.21680 = (-0.21683 + -0.21678)/2.0
 sum -  nocc_ = 0.00011009
 On Iteration in Bisection 15
 a: 0.00011  b:-0.00002

 -0.21682 = (-0.21683 + -0.21680)/2.0
 sum -  nocc_ = 0.00004350
 On Iteration in Bisection 16
 a: 0.00004  b:-0.00002

 -0.21683 = (-0.21683 + -0.21682)/2.0
 sum -  nocc_ = 0.00001021
 On Iteration in Bisection 17
 a: 0.00001  b:-0.00002

 -0.21683 = (-0.21683 + -0.21683)/2.0
 sum -  nocc_ = -0.00000644
 On Iteration in Bisection 18
 a: -0.00001  b:-0.00002

 -0.21683 = (-0.21683 + -0.21683)/2.0
 sum -  nocc_ = 0.00000189
 On Iteration in Bisection 19
 a: 0.00000  b:-0.00001

 -0.21683 = (-0.21683 + -0.21683)/2.0
 sum -  nocc_ = -0.00000227
 On Iteration in Bisection 20
 a: -0.00000  b:-0.00001

 -0.21683 = (-0.21683 + -0.21683)/2.0
 sum -  nocc_ = -0.00000019
 On Iteration in Bisection 21
 a: -0.00000  b:-0.00000

 -0.21683 = (-0.21683 + -0.21683)/2.0
 sum -  nocc_ = 0.00000085
 On Iteration in Bisection 22
 a: 0.00000  b:-0.00000

 -0.21683 = (-0.21683 + -0.21683)/2.0
 sum -  nocc_ = 0.00000033
 On Iteration in Bisection 23
 a: 0.00000  b:-0.00000

 -0.21683 = (-0.21683 + -0.21683)/2.0
 sum -  nocc_ = 0.00000007
 On Iteration in Bisection 24
 a: 0.00000  b:-0.00000

 -0.21683 = (-0.21683 + -0.21683)/2.0
 sum -  nocc_ = -0.00000006
 On Iteration in Bisection 25
 a: -0.00000  b:-0.00000

 -0.21683 = (-0.21683 + -0.21683)/2.0
 sum -  nocc_ = 0.00000000
 ef = -0.21683 sum = 1.00000 

 Iter: 7  T:    20000.000  val:-0.216828  sumni 0.00000
 ne = 1.0000

 iter:8  failiter:8  energy:     -0.992348256307  total:     -0.780677372871  error:     -0.002441281591
 In Bisection function HOMO = -0.312  LUMO =  1.523

 0.60567 = (-0.31199 + 1.52332)/2.0
 sum -  nocc_ = 1.70660344
 On Iteration in Bisection 0
 a: 1.70660  b:-0.45274

 0.14684 = (-0.31199 + 0.60567)/2.0
 sum -  nocc_ = 0.98591679
 On Iteration in Bisection 1
 a: 0.98592  b:-0.45274

 -0.08258 = (-0.31199 + 0.14684)/2.0
 sum -  nocc_ = 0.62393919
 On Iteration in Bisection 2
 a: 0.62394  b:-0.45274

 -0.19728 = (-0.31199 + -0.08258)/2.0
 sum -  nocc_ = 0.09233759
 On Iteration in Bisection 3
 a: 0.09234  b:-0.45274

 -0.25464 = (-0.31199 + -0.19728)/2.0
 sum -  nocc_ = -0.17860963
 On Iteration in Bisection 4
 a: -0.17861  b:-0.45274

 -0.22596 = (-0.25464 + -0.19728)/2.0
 sum -  nocc_ = -0.04274154
 On Iteration in Bisection 5
 a: -0.04274  b:-0.17861

 -0.21162 = (-0.22596 + -0.19728)/2.0
 sum -  nocc_ = 0.02473343
 On Iteration in Bisection 6
 a: 0.02473  b:-0.04274

 -0.21879 = (-0.22596 + -0.21162)/2.0
 sum -  nocc_ = -0.00899801
 On Iteration in Bisection 7
 a: -0.00900  b:-0.04274

 -0.21521 = (-0.21879 + -0.21162)/2.0
 sum -  nocc_ = 0.00786638
 On Iteration in Bisection 8
 a: 0.00787  b:-0.00900

 -0.21700 = (-0.21879 + -0.21521)/2.0
 sum -  nocc_ = -0.00056579
 On Iteration in Bisection 9
 a: -0.00057  b:-0.00900

 -0.21610 = (-0.21700 + -0.21521)/2.0
 sum -  nocc_ = 0.00365025
 On Iteration in Bisection 10
 a: 0.00365  b:-0.00057

 -0.21655 = (-0.21700 + -0.21610)/2.0
 sum -  nocc_ = 0.00154223
 On Iteration in Bisection 11
 a: 0.00154  b:-0.00057

 -0.21677 = (-0.21700 + -0.21655)/2.0
 sum -  nocc_ = 0.00048822
 On Iteration in Bisection 12
 a: 0.00049  b:-0.00057

 -0.21689 = (-0.21700 + -0.21677)/2.0
 sum -  nocc_ = -0.00003879
 On Iteration in Bisection 13
 a: -0.00004  b:-0.00057

 -0.21683 = (-0.21689 + -0.21677)/2.0
 sum -  nocc_ = 0.00022471
 On Iteration in Bisection 14
 a: 0.00022  b:-0.00004

 -0.21686 = (-0.21689 + -0.21683)/2.0
 sum -  nocc_ = 0.00009296
 On Iteration in Bisection 15
 a: 0.00009  b:-0.00004

 -0.21687 = (-0.21689 + -0.21686)/2.0
 sum -  nocc_ = 0.00002709
 On Iteration in Bisection 16
 a: 0.00003  b:-0.00004

 -0.21688 = (-0.21689 + -0.21687)/2.0
 sum -  nocc_ = -0.00000585
 On Iteration in Bisection 17
 a: -0.00001  b:-0.00004

 -0.21688 = (-0.21688 + -0.21687)/2.0
 sum -  nocc_ = 0.00001062
 On Iteration in Bisection 18
 a: 0.00001  b:-0.00001

 -0.21688 = (-0.21688 + -0.21688)/2.0
 sum -  nocc_ = 0.00000238
 On Iteration in Bisection 19
 a: 0.00000  b:-0.00001

 -0.21688 = (-0.21688 + -0.21688)/2.0
 sum -  nocc_ = -0.00000173
 On Iteration in Bisection 20
 a: -0.00000  b:-0.00001

 -0.21688 = (-0.21688 + -0.21688)/2.0
 sum -  nocc_ = 0.00000033
 On Iteration in Bisection 21
 a: 0.00000  b:-0.00000

 -0.21688 = (-0.21688 + -0.21688)/2.0
 sum -  nocc_ = -0.00000070
 On Iteration in Bisection 22
 a: -0.00000  b:-0.00000

 -0.21688 = (-0.21688 + -0.21688)/2.0
 sum -  nocc_ = -0.00000019
 On Iteration in Bisection 23
 a: -0.00000  b:-0.00000

 -0.21688 = (-0.21688 + -0.21688)/2.0
 sum -  nocc_ = 0.00000007
 On Iteration in Bisection 24
 a: 0.00000  b:-0.00000

 -0.21688 = (-0.21688 + -0.21688)/2.0
 sum -  nocc_ = -0.00000006
 On Iteration in Bisection 25
 a: -0.00000  b:-0.00000

 -0.21688 = (-0.21688 + -0.21688)/2.0
 sum -  nocc_ = 0.00000000
 ef = -0.21688 sum = 1.00000 

 Iter: 8  T:    20000.000  val:-0.216878  sumni 0.00000
 ne = 1.0000

 iter:9  failiter:9  energy:     -0.993602569686  total:     -0.781931686250  error:     -0.001254313379
 In Bisection function HOMO = -0.312  LUMO =  1.522

 0.60497 = (-0.31250 + 1.52243)/2.0
 sum -  nocc_ = 1.70123063
 On Iteration in Bisection 0
 a: 1.70123  b:-0.45343

 0.14623 = (-0.31250 + 0.60497)/2.0
 sum -  nocc_ = 0.98566484
 On Iteration in Bisection 1
 a: 0.98566  b:-0.45343

 -0.08313 = (-0.31250 + 0.14623)/2.0
 sum -  nocc_ = 0.62020769
 On Iteration in Bisection 2
 a: 0.62021  b:-0.45343

 -0.19782 = (-0.31250 + -0.08313)/2.0
 sum -  nocc_ = 0.08946399
 On Iteration in Bisection 3
 a: 0.08946  b:-0.45343

 -0.25516 = (-0.31250 + -0.19782)/2.0
 sum -  nocc_ = -0.18016844
 On Iteration in Bisection 4
 a: -0.18017  b:-0.45343

 -0.22649 = (-0.25516 + -0.19782)/2.0
 sum -  nocc_ = -0.04491931
 On Iteration in Bisection 5
 a: -0.04492  b:-0.18017

 -0.21215 = (-0.22649 + -0.19782)/2.0
 sum -  nocc_ = 0.02221176
 On Iteration in Bisection 6
 a: 0.02221  b:-0.04492

 -0.21932 = (-0.22649 + -0.21215)/2.0
 sum -  nocc_ = -0.01134583
 On Iteration in Bisection 7
 a: -0.01135  b:-0.04492

 -0.21574 = (-0.21932 + -0.21215)/2.0
 sum -  nocc_ = 0.00543200
 On Iteration in Bisection 8
 a: 0.00543  b:-0.01135

 -0.21753 = (-0.21932 + -0.21574)/2.0
 sum -  nocc_ = -0.00295679
 On Iteration in Bisection 9
 a: -0.00296  b:-0.01135

 -0.21663 = (-0.21753 + -0.21574)/2.0
 sum -  nocc_ = 0.00123759
 On Iteration in Bisection 10
 a: 0.00124  b:-0.00296

 -0.21708 = (-0.21753 + -0.21663)/2.0
 sum -  nocc_ = -0.00085959
 On Iteration in Bisection 11
 a: -0.00086  b:-0.00296

 -0.21686 = (-0.21708 + -0.21663)/2.0
 sum -  nocc_ = 0.00018900
 On Iteration in Bisection 12
 a: 0.00019  b:-0.00086

 -0.21697 = (-0.21708 + -0.21686)/2.0
 sum -  nocc_ = -0.00033530
 On Iteration in Bisection 13
 a: -0.00034  b:-0.00086

 -0.21691 = (-0.21697 + -0.21686)/2.0
 sum -  nocc_ = -0.00007315
 On Iteration in Bisection 14
 a: -0.00007  b:-0.00034

 -0.21688 = (-0.21691 + -0.21686)/2.0
 sum -  nocc_ = 0.00005793
 On Iteration in Bisection 15
 a: 0.00006  b:-0.00007

 -0.21690 = (-0.21691 + -0.21688)/2.0
 sum -  nocc_ = -0.00000761
 On Iteration in Bisection 16
 a: -0.00001  b:-0.00007

 -0.21689 = (-0.21690 + -0.21688)/2.0
 sum -  nocc_ = 0.00002516
 On Iteration in Bisection 17
 a: 0.00003  b:-0.00001

 -0.21689 = (-0.21690 + -0.21689)/2.0
 sum -  nocc_ = 0.00000877
 On Iteration in Bisection 18
 a: 0.00001  b:-0.00001

 -0.21690 = (-0.21690 + -0.21689)/2.0
 sum -  nocc_ = 0.00000058
 On Iteration in Bisection 19
 a: 0.00000  b:-0.00001

 -0.21690 = (-0.21690 + -0.21690)/2.0
 sum -  nocc_ = -0.00000351
 On Iteration in Bisection 20
 a: -0.00000  b:-0.00001

 -0.21690 = (-0.21690 + -0.21690)/2.0
 sum -  nocc_ = -0.00000147
 On Iteration in Bisection 21
 a: -0.00000  b:-0.00000

 -0.21690 = (-0.21690 + -0.21690)/2.0
 sum -  nocc_ = -0.00000044
 On Iteration in Bisection 22
 a: -0.00000  b:-0.00000

 -0.21690 = (-0.21690 + -0.21690)/2.0
 sum -  nocc_ = 0.00000007
 On Iteration in Bisection 23
 a: 0.00000  b:-0.00000

 -0.21690 = (-0.21690 + -0.21690)/2.0
 sum -  nocc_ = -0.00000019
 On Iteration in Bisection 24
 a: -0.00000  b:-0.00000

 -0.21690 = (-0.21690 + -0.21690)/2.0
 sum -  nocc_ = -0.00000006
 On Iteration in Bisection 25
 a: -0.00000  b:-0.00000

 -0.21690 = (-0.21690 + -0.21690)/2.0
 sum -  nocc_ = 0.00000001
 ef = -0.21690 sum = 1.00000 

 Iter: 9  T:    20000.000  val:-0.216896  sumni 0.00000
 ne = 1.0000

 iter:10  failiter:10  energy:     -0.994223540971  total:     -0.782552657535  error:     -0.000620971286
 In Bisection function HOMO = -0.313  LUMO =  1.522

 0.60470 = (-0.31275 + 1.52215)/2.0
 sum -  nocc_ = 1.69922044
 On Iteration in Bisection 0
 a: 1.69922  b:-0.45377

 0.14598 = (-0.31275 + 0.60470)/2.0
 sum -  nocc_ = 0.98555030
 On Iteration in Bisection 1
 a: 0.98555  b:-0.45377

 -0.08338 = (-0.31275 + 0.14598)/2.0
 sum -  nocc_ = 0.61845400
 On Iteration in Bisection 2
 a: 0.61845  b:-0.45377

 -0.19806 = (-0.31275 + -0.08338)/2.0
 sum -  nocc_ = 0.08811312
 On Iteration in Bisection 3
 a: 0.08811  b:-0.45377

 -0.25541 = (-0.31275 + -0.19806)/2.0
 sum -  nocc_ = -0.18090084
 On Iteration in Bisection 4
 a: -0.18090  b:-0.45377

 -0.22673 = (-0.25541 + -0.19806)/2.0
 sum -  nocc_ = -0.04594189
 On Iteration in Bisection 5
 a: -0.04594  b:-0.18090

 -0.21240 = (-0.22673 + -0.19806)/2.0
 sum -  nocc_ = 0.02102707
 On Iteration in Bisection 6
 a: 0.02103  b:-0.04594

 -0.21957 = (-0.22673 + -0.21240)/2.0
 sum -  nocc_ = -0.01244853
 On Iteration in Bisection 7
 a: -0.01245  b:-0.04594

 -0.21598 = (-0.21957 + -0.21240)/2.0
 sum -  nocc_ = 0.00428850
 On Iteration in Bisection 8
 a: 0.00429  b:-0.01245

 -0.21778 = (-0.21957 + -0.21598)/2.0
 sum -  nocc_ = -0.00407983
 On Iteration in Bisection 9
 a: -0.00408  b:-0.01245

 -0.21688 = (-0.21778 + -0.21598)/2.0
 sum -  nocc_ = 0.00010433
 On Iteration in Bisection 10
 a: 0.00010  b:-0.00408

 -0.21733 = (-0.21778 + -0.21688)/2.0
 sum -  nocc_ = -0.00198775
 On Iteration in Bisection 11
 a: -0.00199  b:-0.00408

 -0.21710 = (-0.21733 + -0.21688)/2.0
 sum -  nocc_ = -0.00094171
 On Iteration in Bisection 12
 a: -0.00094  b:-0.00199

 -0.21699 = (-0.21710 + -0.21688)/2.0
 sum -  nocc_ = -0.00041869
 On Iteration in Bisection 13
 a: -0.00042  b:-0.00094

 -0.21694 = (-0.21699 + -0.21688)/2.0
 sum -  nocc_ = -0.00015718
 On Iteration in Bisection 14
 a: -0.00016  b:-0.00042

 -0.21691 = (-0.21694 + -0.21688)/2.0
 sum -  nocc_ = -0.00002642
 On Iteration in Bisection 15
 a: -0.00003  b:-0.00016

 -0.21689 = (-0.21691 + -0.21688)/2.0
 sum -  nocc_ = 0.00003895
 On Iteration in Bisection 16
 a: 0.00004  b:-0.00003

 -0.21690 = (-0.21691 + -0.21689)/2.0
 sum -  nocc_ = 0.00000626
 On Iteration in Bisection 17
 a: 0.00001  b:-0.00003

 -0.21690 = (-0.21691 + -0.21690)/2.0
 sum -  nocc_ = -0.00001008
 On Iteration in Bisection 18
 a: -0.00001  b:-0.00003

 -0.21690 = (-0.21690 + -0.21690)/2.0
 sum -  nocc_ = -0.00000191
 On Iteration in Bisection 19
 a: -0.00000  b:-0.00001

 -0.21690 = (-0.21690 + -0.21690)/2.0
 sum -  nocc_ = 0.00000218
 On Iteration in Bisection 20
 a: 0.00000  b:-0.00000

 -0.21690 = (-0.21690 + -0.21690)/2.0
 sum -  nocc_ = 0.00000014
 On Iteration in Bisection 21
 a: 0.00000  b:-0.00000

 -0.21690 = (-0.21690 + -0.21690)/2.0
 sum -  nocc_ = -0.00000089
 On Iteration in Bisection 22
 a: -0.00000  b:-0.00000

 -0.21690 = (-0.21690 + -0.21690)/2.0
 sum -  nocc_ = -0.00000038
 On Iteration in Bisection 23
 a: -0.00000  b:-0.00000

 -0.21690 = (-0.21690 + -0.21690)/2.0
 sum -  nocc_ = -0.00000012
 On Iteration in Bisection 24
 a: -0.00000  b:-0.00000

 -0.21690 = (-0.21690 + -0.21690)/2.0
 sum -  nocc_ = 0.00000001
 ef = -0.21690 sum = 1.00000 

 Iter: 10  T:    20000.000  val:-0.216902  sumni 0.00000
 ne = 1.0000

 iter:11  failiter:11  energy:     -0.994524725220  total:     -0.782853841784  error:     -0.000301184249
 In Bisection function HOMO = -0.313  LUMO =  1.522

 0.60460 = (-0.31286 + 1.52207)/2.0
 sum -  nocc_ = 1.69844562
 On Iteration in Bisection 0
 a: 1.69845  b:-0.45393

 0.14587 = (-0.31286 + 0.60460)/2.0
 sum -  nocc_ = 0.98549798
 On Iteration in Bisection 1
 a: 0.98550  b:-0.45393

 -0.08350 = (-0.31286 + 0.14587)/2.0
 sum -  nocc_ = 0.61763158
 On Iteration in Bisection 2
 a: 0.61763  b:-0.45393

 -0.19818 = (-0.31286 + -0.08350)/2.0
 sum -  nocc_ = 0.08747815
 On Iteration in Bisection 3
 a: 0.08748  b:-0.45393

 -0.25552 = (-0.31286 + -0.19818)/2.0
 sum -  nocc_ = -0.18124513
 On Iteration in Bisection 4
 a: -0.18125  b:-0.45393

 -0.22685 = (-0.25552 + -0.19818)/2.0
 sum -  nocc_ = -0.04642230
 On Iteration in Bisection 5
 a: -0.04642  b:-0.18125

 -0.21252 = (-0.22685 + -0.19818)/2.0
 sum -  nocc_ = 0.02047037
 On Iteration in Bisection 6
 a: 0.02047  b:-0.04642

 -0.21968 = (-0.22685 + -0.21252)/2.0
 sum -  nocc_ = -0.01296663
 On Iteration in Bisection 7
 a: -0.01297  b:-0.04642

 -0.21610 = (-0.21968 + -0.21252)/2.0
 sum -  nocc_ = 0.00375119
 On Iteration in Bisection 8
 a: 0.00375  b:-0.01297

 -0.21789 = (-0.21968 + -0.21610)/2.0
 sum -  nocc_ = -0.00460751
 On Iteration in Bisection 9
 a: -0.00461  b:-0.01297

 -0.21700 = (-0.21789 + -0.21610)/2.0
 sum -  nocc_ = -0.00042816
 On Iteration in Bisection 10
 a: -0.00043  b:-0.00461

 -0.21655 = (-0.21700 + -0.21610)/2.0
 sum -  nocc_ = 0.00166151
 On Iteration in Bisection 11
 a: 0.00166  b:-0.00043

 -0.21677 = (-0.21700 + -0.21655)/2.0
 sum -  nocc_ = 0.00061668
 On Iteration in Bisection 12
 a: 0.00062  b:-0.00043

 -0.21688 = (-0.21700 + -0.21677)/2.0
 sum -  nocc_ = 0.00009426
 On Iteration in Bisection 13
 a: 0.00009  b:-0.00043

 -0.21694 = (-0.21700 + -0.21688)/2.0
 sum -  nocc_ = -0.00016695
 On Iteration in Bisection 14
 a: -0.00017  b:-0.00043

 -0.21691 = (-0.21694 + -0.21688)/2.0
 sum -  nocc_ = -0.00003635
 On Iteration in Bisection 15
 a: -0.00004  b:-0.00017

 -0.21690 = (-0.21691 + -0.21688)/2.0
 sum -  nocc_ = 0.00002896
 On Iteration in Bisection 16
 a: 0.00003  b:-0.00004

 -0.21690 = (-0.21691 + -0.21690)/2.0
 sum -  nocc_ = -0.00000369
 On Iteration in Bisection 17
 a: -0.00000  b:-0.00004

 -0.21690 = (-0.21690 + -0.21690)/2.0
 sum -  nocc_ = 0.00001263
 On Iteration in Bisection 18
 a: 0.00001  b:-0.00000

 -0.21690 = (-0.21690 + -0.21690)/2.0
 sum -  nocc_ = 0.00000447
 On Iteration in Bisection 19
 a: 0.00000  b:-0.00000

 -0.21690 = (-0.21690 + -0.21690)/2.0
 sum -  nocc_ = 0.00000039
 On Iteration in Bisection 20
 a: 0.00000  b:-0.00000

 -0.21690 = (-0.21690 + -0.21690)/2.0
 sum -  nocc_ = -0.00000165
 On Iteration in Bisection 21
 a: -0.00000  b:-0.00000

 -0.21690 = (-0.21690 + -0.21690)/2.0
 sum -  nocc_ = -0.00000063
 On Iteration in Bisection 22
 a: -0.00000  b:-0.00000

 -0.21690 = (-0.21690 + -0.21690)/2.0
 sum -  nocc_ = -0.00000012
 On Iteration in Bisection 23
 a: -0.00000  b:-0.00000

 -0.21690 = (-0.21690 + -0.21690)/2.0
 sum -  nocc_ = 0.00000013
 On Iteration in Bisection 24
 a: 0.00000  b:-0.00000

 -0.21690 = (-0.21690 + -0.21690)/2.0
 sum -  nocc_ = 0.00000000
 ef = -0.21690 sum = 1.00000 

 Iter: 11  T:    20000.000  val:-0.216904  sumni 0.00000
 ne = 1.0000

 iter:12  failiter:12  energy:     -0.994669135689  total:     -0.782998252253  error:     -0.000144410469
 In Bisection function HOMO = -0.313  LUMO =  1.522

 0.60456 = (-0.31292 + 1.52204)/2.0
 sum -  nocc_ = 1.69813545
 On Iteration in Bisection 0
 a: 1.69814  b:-0.45400

 0.14582 = (-0.31292 + 0.60456)/2.0
 sum -  nocc_ = 0.98547389
 On Iteration in Bisection 1
 a: 0.98547  b:-0.45400

 -0.08355 = (-0.31292 + 0.14582)/2.0
 sum -  nocc_ = 0.61724567
 On Iteration in Bisection 2
 a: 0.61725  b:-0.45400

 -0.19823 = (-0.31292 + -0.08355)/2.0
 sum -  nocc_ = 0.08717945
 On Iteration in Bisection 3
 a: 0.08718  b:-0.45400

 -0.25558 = (-0.31292 + -0.19823)/2.0
 sum -  nocc_ = -0.18140714
 On Iteration in Bisection 4
 a: -0.18141  b:-0.45400

 -0.22691 = (-0.25558 + -0.19823)/2.0
 sum -  nocc_ = -0.04664824
 On Iteration in Bisection 5
 a: -0.04665  b:-0.18141

 -0.21257 = (-0.22691 + -0.19823)/2.0
 sum -  nocc_ = 0.02020852
 On Iteration in Bisection 6
 a: 0.02021  b:-0.04665

 -0.21974 = (-0.22691 + -0.21257)/2.0
 sum -  nocc_ = -0.01321030
 On Iteration in Bisection 7
 a: -0.01321  b:-0.04665

 -0.21615 = (-0.21974 + -0.21257)/2.0
 sum -  nocc_ = 0.00349847
 On Iteration in Bisection 8
 a: 0.00350  b:-0.01321

 -0.21795 = (-0.21974 + -0.21615)/2.0
 sum -  nocc_ = -0.00485570
 On Iteration in Bisection 9
 a: -0.00486  b:-0.01321

 -0.21705 = (-0.21795 + -0.21615)/2.0
 sum -  nocc_ = -0.00067861
 On Iteration in Bisection 10
 a: -0.00068  b:-0.00486

 -0.21660 = (-0.21705 + -0.21615)/2.0
 sum -  nocc_ = 0.00140993
 On Iteration in Bisection 11
 a: 0.00141  b:-0.00068

 -0.21683 = (-0.21705 + -0.21660)/2.0
 sum -  nocc_ = 0.00036566
 On Iteration in Bisection 12
 a: 0.00037  b:-0.00068

 -0.21694 = (-0.21705 + -0.21683)/2.0
 sum -  nocc_ = -0.00015647
 On Iteration in Bisection 13
 a: -0.00016  b:-0.00068

 -0.21688 = (-0.21694 + -0.21683)/2.0
 sum -  nocc_ = 0.00010459
 On Iteration in Bisection 14
 a: 0.00010  b:-0.00016

 -0.21691 = (-0.21694 + -0.21688)/2.0
 sum -  nocc_ = -0.00002594
 On Iteration in Bisection 15
 a: -0.00003  b:-0.00016

 -0.21690 = (-0.21691 + -0.21688)/2.0
 sum -  nocc_ = 0.00003933
 On Iteration in Bisection 16
 a: 0.00004  b:-0.00003

 -0.21690 = (-0.21691 + -0.21690)/2.0
 sum -  nocc_ = 0.00000669
 On Iteration in Bisection 17
 a: 0.00001  b:-0.00003

 -0.21691 = (-0.21691 + -0.21690)/2.0
 sum -  nocc_ = -0.00000962
 On Iteration in Bisection 18
 a: -0.00001  b:-0.00003

 -0.21690 = (-0.21691 + -0.21690)/2.0
 sum -  nocc_ = -0.00000147
 On Iteration in Bisection 19
 a: -0.00000  b:-0.00001

 -0.21690 = (-0.21690 + -0.21690)/2.0
 sum -  nocc_ = 0.00000261
 On Iteration in Bisection 20
 a: 0.00000  b:-0.00000

 -0.21690 = (-0.21690 + -0.21690)/2.0
 sum -  nocc_ = 0.00000057
 On Iteration in Bisection 21
 a: 0.00000  b:-0.00000

 -0.21690 = (-0.21690 + -0.21690)/2.0
 sum -  nocc_ = -0.00000045
 On Iteration in Bisection 22
 a: -0.00000  b:-0.00000

 -0.21690 = (-0.21690 + -0.21690)/2.0
 sum -  nocc_ = 0.00000006
 On Iteration in Bisection 23
 a: 0.00000  b:-0.00000

 -0.21690 = (-0.21690 + -0.21690)/2.0
 sum -  nocc_ = -0.00000019
 On Iteration in Bisection 24
 a: -0.00000  b:-0.00000

 -0.21690 = (-0.21690 + -0.21690)/2.0
 sum -  nocc_ = -0.00000006
 On Iteration in Bisection 25
 a: -0.00000  b:-0.00000

 -0.21690 = (-0.21690 + -0.21690)/2.0
 sum -  nocc_ = 0.00000000
 ef = -0.21690 sum = 1.00000 

 Iter: 12  T:    20000.000  val:-0.216904  sumni 0.00000
 ne = 1.0000

 iter:13  failiter:13  energy:     -0.994737928016  total:     -0.783067044580  error:     -0.000068792327
 In Bisection function HOMO = -0.313  LUMO =  1.522

[...]
 a: 0.00000  b:-0.00000

 -0.21690 = (-0.21690 + -0.21690)/2.0
 sum -  nocc_ = 0.00000005
 On Iteration in Bisection 23
 a: 0.00000  b:-0.00000

 -0.21690 = (-0.21690 + -0.21690)/2.0
 sum -  nocc_ = -0.00000021
 On Iteration in Bisection 24
 a: -0.00000  b:-0.00000

 -0.21690 = (-0.21690 + -0.21690)/2.0
 sum -  nocc_ = -0.00000008
 On Iteration in Bisection 25
 a: -0.00000  b:-0.00000

 -0.21690 = (-0.21690 + -0.21690)/2.0
 sum -  nocc_ = -0.00000002
 On Iteration in Bisection 26
 a: -0.00000  b:-0.00000

 -0.21690 = (-0.21690 + -0.21690)/2.0
 sum -  nocc_ = 0.00000002
 On Iteration in Bisection 27
 a: 0.00000  b:-0.00000

 -0.21690 = (-0.21690 + -0.21690)/2.0
 sum -  nocc_ = -0.00000000
 ef = -0.21690 sum = 1.00000 

 Iter: 32  T:    20000.000  val:-0.216905  sumni 0.00000
 ne = 1.0000

 iter:33  failiter:33  energy:     -0.994799870411  total:     -0.783128986975  error:     -0.000000000025
 In Bisection function HOMO = -0.313  LUMO =  1.522

 0.60453 = (-0.31297 + 1.52203)/2.0
 sum -  nocc_ = 1.69790652
 On Iteration in Bisection 0
 a: 1.69791  b:-0.45407

 0.14578 = (-0.31297 + 0.60453)/2.0
 sum -  nocc_ = 0.98545294
 On Iteration in Bisection 1
 a: 0.98545  b:-0.45407

 -0.08359 = (-0.31297 + 0.14578)/2.0
 sum -  nocc_ = 0.61690328
 On Iteration in Bisection 2
 a: 0.61690  b:-0.45407

 -0.19828 = (-0.31297 + -0.08359)/2.0
 sum -  nocc_ = 0.08691358
 On Iteration in Bisection 3
 a: 0.08691  b:-0.45407

 -0.25563 = (-0.31297 + -0.19828)/2.0
 sum -  nocc_ = -0.18155141
 On Iteration in Bisection 4
 a: -0.18155  b:-0.45407

 -0.22695 = (-0.25563 + -0.19828)/2.0
 sum -  nocc_ = -0.04684933
 On Iteration in Bisection 5
 a: -0.04685  b:-0.18155

 -0.21262 = (-0.22695 + -0.19828)/2.0
 sum -  nocc_ = 0.01997546
 On Iteration in Bisection 6
 a: 0.01998  b:-0.04685

 -0.21979 = (-0.22695 + -0.21262)/2.0
 sum -  nocc_ = -0.01342719
 On Iteration in Bisection 7
 a: -0.01343  b:-0.04685

 -0.21620 = (-0.21979 + -0.21262)/2.0
 sum -  nocc_ = 0.00327353
 On Iteration in Bisection 8
 a: 0.00327  b:-0.01343

 -0.21799 = (-0.21979 + -0.21620)/2.0
 sum -  nocc_ = -0.00507660
 On Iteration in Bisection 9
 a: -0.00508  b:-0.01343

 -0.21710 = (-0.21799 + -0.21620)/2.0
 sum -  nocc_ = -0.00090152
 On Iteration in Bisection 10
 a: -0.00090  b:-0.00508

 -0.21665 = (-0.21710 + -0.21620)/2.0
 sum -  nocc_ = 0.00118600
 On Iteration in Bisection 11
 a: 0.00119  b:-0.00090

 -0.21687 = (-0.21710 + -0.21665)/2.0
 sum -  nocc_ = 0.00014224
 On Iteration in Bisection 12
 a: 0.00014  b:-0.00090

 -0.21699 = (-0.21710 + -0.21687)/2.0
 sum -  nocc_ = -0.00037964
 On Iteration in Bisection 13
 a: -0.00038  b:-0.00090

 -0.21693 = (-0.21699 + -0.21687)/2.0
 sum -  nocc_ = -0.00011870
 On Iteration in Bisection 14
 a: -0.00012  b:-0.00038

 -0.21690 = (-0.21693 + -0.21687)/2.0
 sum -  nocc_ = 0.00001177
 On Iteration in Bisection 15
 a: 0.00001  b:-0.00012

 -0.21692 = (-0.21693 + -0.21690)/2.0
 sum -  nocc_ = -0.00005347
 On Iteration in Bisection 16
 a: -0.00005  b:-0.00012

 -0.21691 = (-0.21692 + -0.21690)/2.0
 sum -  nocc_ = -0.00002085
 On Iteration in Bisection 17
 a: -0.00002  b:-0.00005

 -0.21691 = (-0.21691 + -0.21690)/2.0
 sum -  nocc_ = -0.00000454
 On Iteration in Bisection 18
 a: -0.00000  b:-0.00002

 -0.21690 = (-0.21691 + -0.21690)/2.0
 sum -  nocc_ = 0.00000361
 On Iteration in Bisection 19
 a: 0.00000  b:-0.00000

 -0.21690 = (-0.21691 + -0.21690)/2.0
 sum -  nocc_ = -0.00000046
 On Iteration in Bisection 20
 a: -0.00000  b:-0.00000

 -0.21690 = (-0.21690 + -0.21690)/2.0
 sum -  nocc_ = 0.00000158
 On Iteration in Bisection 21
 a: 0.00000  b:-0.00000

 -0.21690 = (-0.21690 + -0.21690)/2.0
 sum -  nocc_ = 0.00000056
 On Iteration in Bisection 22
 a: 0.00000  b:-0.00000

 -0.21690 = (-0.21690 + -0.21690)/2.0
 sum -  nocc_ = 0.00000005
 On Iteration in Bisection 23
 a: 0.00000  b:-0.00000

 -0.21690 = (-0.21690 + -0.21690)/2.0
 sum -  nocc_ = -0.00000021
 On Iteration in Bisection 24
 a: -0.00000  b:-0.00000

 -0.21690 = (-0.21690 + -0.21690)/2.0
 sum -  nocc_ = -0.00000008
 On Iteration in Bisection 25
 a: -0.00000  b:-0.00000

 -0.21690 = (-0.21690 + -0.21690)/2.0
 sum -  nocc_ = -0.00000002
 On Iteration in Bisection 26
 a: -0.00000  b:-0.00000

 -0.21690 = (-0.21690 + -0.21690)/2.0
 sum -  nocc_ = 0.00000002
 On Iteration in Bisection 27
 a: 0.00000  b:-0.00000

 -0.21690 = (-0.21690 + -0.21690)/2.0
 sum -  nocc_ = -0.00000000
 ef = -0.21690 sum = 1.00000 

 Iter: 33  T:    20000.000  val:-0.216905  sumni 0.00000
 ne = 1.0000

 iter:34  failiter:34  energy:     -0.994799870423  total:     -0.783128986987  error:     -0.000000000012
 In Bisection function HOMO = -0.313  LUMO =  1.522

 0.60453 = (-0.31297 + 1.52203)/2.0
 sum -  nocc_ = 1.69790652
 On Iteration in Bisection 0
 a: 1.69791  b:-0.45407

 0.14578 = (-0.31297 + 0.60453)/2.0
 sum -  nocc_ = 0.98545294
 On Iteration in Bisection 1
 a: 0.98545  b:-0.45407

 -0.08359 = (-0.31297 + 0.14578)/2.0
 sum -  nocc_ = 0.61690328
 On Iteration in Bisection 2
 a: 0.61690  b:-0.45407

 -0.19828 = (-0.31297 + -0.08359)/2.0
 sum -  nocc_ = 0.08691358
 On Iteration in Bisection 3
 a: 0.08691  b:-0.45407

 -0.25563 = (-0.31297 + -0.19828)/2.0
 sum -  nocc_ = -0.18155141
 On Iteration in Bisection 4
 a: -0.18155  b:-0.45407

 -0.22695 = (-0.25563 + -0.19828)/2.0
 sum -  nocc_ = -0.04684933
 On Iteration in Bisection 5
 a: -0.04685  b:-0.18155

 -0.21262 = (-0.22695 + -0.19828)/2.0
 sum -  nocc_ = 0.01997546
 On Iteration in Bisection 6
 a: 0.01998  b:-0.04685

 -0.21979 = (-0.22695 + -0.21262)/2.0
 sum -  nocc_ = -0.01342719
 On Iteration in Bisection 7
 a: -0.01343  b:-0.04685

 -0.21620 = (-0.21979 + -0.21262)/2.0
 sum -  nocc_ = 0.00327353
 On Iteration in Bisection 8
 a: 0.00327  b:-0.01343

 -0.21799 = (-0.21979 + -0.21620)/2.0
 sum -  nocc_ = -0.00507660
 On Iteration in Bisection 9
 a: -0.00508  b:-0.01343

 -0.21710 = (-0.21799 + -0.21620)/2.0
 sum -  nocc_ = -0.00090152
 On Iteration in Bisection 10
 a: -0.00090  b:-0.00508

 -0.21665 = (-0.21710 + -0.21620)/2.0
 sum -  nocc_ = 0.00118600
 On Iteration in Bisection 11
 a: 0.00119  b:-0.00090

 -0.21687 = (-0.21710 + -0.21665)/2.0
 sum -  nocc_ = 0.00014224
 On Iteration in Bisection 12
 a: 0.00014  b:-0.00090

 -0.21699 = (-0.21710 + -0.21687)/2.0
 sum -  nocc_ = -0.00037964
 On Iteration in Bisection 13
 a: -0.00038  b:-0.00090

 -0.21693 = (-0.21699 + -0.21687)/2.0
 sum -  nocc_ = -0.00011870
 On Iteration in Bisection 14
 a: -0.00012  b:-0.00038

 -0.21690 = (-0.21693 + -0.21687)/2.0
 sum -  nocc_ = 0.00001177
 On Iteration in Bisection 15
 a: 0.00001  b:-0.00012

 -0.21692 = (-0.21693 + -0.21690)/2.0
 sum -  nocc_ = -0.00005347
 On Iteration in Bisection 16
 a: -0.00005  b:-0.00012

 -0.21691 = (-0.21692 + -0.21690)/2.0
 sum -  nocc_ = -0.00002085
 On Iteration in Bisection 17
 a: -0.00002  b:-0.00005

 -0.21691 = (-0.21691 + -0.21690)/2.0
 sum -  nocc_ = -0.00000454
 On Iteration in Bisection 18
 a: -0.00000  b:-0.00002

 -0.21690 = (-0.21691 + -0.21690)/2.0
 sum -  nocc_ = 0.00000361
 On Iteration in Bisection 19
 a: 0.00000  b:-0.00000

 -0.21690 = (-0.21691 + -0.21690)/2.0
 sum -  nocc_ = -0.00000046
 On Iteration in Bisection 20
 a: -0.00000  b:-0.00000

 -0.21690 = (-0.21690 + -0.21690)/2.0
 sum -  nocc_ = 0.00000158
 On Iteration in Bisection 21
 a: 0.00000  b:-0.00000

 -0.21690 = (-0.21690 + -0.21690)/2.0
 sum -  nocc_ = 0.00000056
 On Iteration in Bisection 22
 a: 0.00000  b:-0.00000

 -0.21690 = (-0.21690 + -0.21690)/2.0
 sum -  nocc_ = 0.00000005
 On Iteration in Bisection 23
 a: 0.00000  b:-0.00000

 -0.21690 = (-0.21690 + -0.21690)/2.0
 sum -  nocc_ = -0.00000021
 On Iteration in Bisection 24
 a: -0.00000  b:-0.00000

 -0.21690 = (-0.21690 + -0.21690)/2.0
 sum -  nocc_ = -0.00000008
 On Iteration in Bisection 25
 a: -0.00000  b:-0.00000

 -0.21690 = (-0.21690 + -0.21690)/2.0
 sum -  nocc_ = -0.00000002
 On Iteration in Bisection 26
 a: -0.00000  b:-0.00000

 -0.21690 = (-0.21690 + -0.21690)/2.0
 sum -  nocc_ = 0.00000002
 On Iteration in Bisection 27
 a: 0.00000  b:-0.00000

 -0.21690 = (-0.21690 + -0.21690)/2.0
 sum -  nocc_ = -0.00000000
 ef = -0.21690 sum = 1.00000 

 Iter: 34  T:    20000.000  val:-0.216905  sumni 0.00000
 ne = 1.0000

 iter:35  failiter:35  energy:     -0.994799870429  total:     -0.783128986993  error:     -0.000000000006
 In Bisection function HOMO = -0.313  LUMO =  1.522

 0.60453 = (-0.31297 + 1.52203)/2.0
 sum -  nocc_ = 1.69790652
 On Iteration in Bisection 0
 a: 1.69791  b:-0.45407

 0.14578 = (-0.31297 + 0.60453)/2.0
 sum -  nocc_ = 0.98545294
 On Iteration in Bisection 1
 a: 0.98545  b:-0.45407

 -0.08359 = (-0.31297 + 0.14578)/2.0
 sum -  nocc_ = 0.61690328
 On Iteration in Bisection 2
 a: 0.61690  b:-0.45407

 -0.19828 = (-0.31297 + -0.08359)/2.0
 sum -  nocc_ = 0.08691358
 On Iteration in Bisection 3
 a: 0.08691  b:-0.45407

 -0.25563 = (-0.31297 + -0.19828)/2.0
 sum -  nocc_ = -0.18155141
 On Iteration in Bisection 4
 a: -0.18155  b:-0.45407

 -0.22695 = (-0.25563 + -0.19828)/2.0
 sum -  nocc_ = -0.04684933
 On Iteration in Bisection 5
 a: -0.04685  b:-0.18155

 -0.21262 = (-0.22695 + -0.19828)/2.0
 sum -  nocc_ = 0.01997546
 On Iteration in Bisection 6
 a: 0.01998  b:-0.04685

 -0.21979 = (-0.22695 + -0.21262)/2.0
 sum -  nocc_ = -0.01342719
 On Iteration in Bisection 7
 a: -0.01343  b:-0.04685

 -0.21620 = (-0.21979 + -0.21262)/2.0
 sum -  nocc_ = 0.00327353
 On Iteration in Bisection 8
 a: 0.00327  b:-0.01343

 -0.21799 = (-0.21979 + -0.21620)/2.0
 sum -  nocc_ = -0.00507660
 On Iteration in Bisection 9
 a: -0.00508  b:-0.01343

 -0.21710 = (-0.21799 + -0.21620)/2.0
 sum -  nocc_ = -0.00090152
 On Iteration in Bisection 10
 a: -0.00090  b:-0.00508

 -0.21665 = (-0.21710 + -0.21620)/2.0
 sum -  nocc_ = 0.00118600
 On Iteration in Bisection 11
 a: 0.00119  b:-0.00090

 -0.21687 = (-0.21710 + -0.21665)/2.0
 sum -  nocc_ = 0.00014224
 On Iteration in Bisection 12
 a: 0.00014  b:-0.00090

 -0.21699 = (-0.21710 + -0.21687)/2.0
 sum -  nocc_ = -0.00037964
 On Iteration in Bisection 13
 a: -0.00038  b:-0.00090

 -0.21693 = (-0.21699 + -0.21687)/2.0
 sum -  nocc_ = -0.00011870
 On Iteration in Bisection 14
 a: -0.00012  b:-0.00038

 -0.21690 = (-0.21693 + -0.21687)/2.0
 sum -  nocc_ = 0.00001177
 On Iteration in Bisection 15
 a: 0.00001  b:-0.00012

 -0.21692 = (-0.21693 + -0.21690)/2.0
 sum -  nocc_ = -0.00005347
 On Iteration in Bisection 16
 a: -0.00005  b:-0.00012

 -0.21691 = (-0.21692 + -0.21690)/2.0
 sum -  nocc_ = -0.00002085
 On Iteration in Bisection 17
 a: -0.00002  b:-0.00005

 -0.21691 = (-0.21691 + -0.21690)/2.0
 sum -  nocc_ = -0.00000454
 On Iteration in Bisection 18
 a: -0.00000  b:-0.00002

 -0.21690 = (-0.21691 + -0.21690)/2.0
 sum -  nocc_ = 0.00000361
 On Iteration in Bisection 19
 a: 0.00000  b:-0.00000

 -0.21690 = (-0.21691 + -0.21690)/2.0
 sum -  nocc_ = -0.00000046
 On Iteration in Bisection 20
 a: -0.00000  b:-0.00000

 -0.21690 = (-0.21690 + -0.21690)/2.0
 sum -  nocc_ = 0.00000158
 On Iteration in Bisection 21
 a: 0.00000  b:-0.00000

 -0.21690 = (-0.21690 + -0.21690)/2.0
 sum -  nocc_ = 0.00000056
 On Iteration in Bisection 22
 a: 0.00000  b:-0.00000

 -0.21690 = (-0.21690 + -0.21690)/2.0
 sum -  nocc_ = 0.00000005
 On Iteration in Bisection 23
 a: 0.00000  b:-0.00000

 -0.21690 = (-0.21690 + -0.21690)/2.0
 sum -  nocc_ = -0.00000021
 On Iteration in Bisection 24
 a: -0.00000  b:-0.00000

 -0.21690 = (-0.21690 + -0.21690)/2.0
 sum -  nocc_ = -0.00000008
 On Iteration in Bisection 25
 a: -0.00000  b:-0.00000

 -0.21690 = (-0.21690 + -0.21690)/2.0
 sum -  nocc_ = -0.00000002
 On Iteration in Bisection 26
 a: -0.00000  b:-0.00000

 -0.21690 = (-0.21690 + -0.21690)/2.0
 sum -  nocc_ = 0.00000002
 On Iteration in Bisection 27
 a: 0.00000  b:-0.00000

 -0.21690 = (-0.21690 + -0.21690)/2.0
 sum -  nocc_ = -0.00000000
 ef = -0.21690 sum = 1.00000 

 Iter: 35  T:    20000.000  val:-0.216905  sumni 0.00000
 ne = 1.0000

 iter:36  failiter:36  energy:     -0.994799870431  total:     -0.783128986995  error:     -0.000000000003
 In Bisection function HOMO = -0.313  LUMO =  1.522

 0.60453 = (-0.31297 + 1.52203)/2.0
 sum -  nocc_ = 1.69790652
 On Iteration in Bisection 0
 a: 1.69791  b:-0.45407

 0.14578 = (-0.31297 + 0.60453)/2.0
 sum -  nocc_ = 0.98545294
 On Iteration in Bisection 1
 a: 0.98545  b:-0.45407

 -0.08359 = (-0.31297 + 0.14578)/2.0
 sum -  nocc_ = 0.61690328
 On Iteration in Bisection 2
 a: 0.61690  b:-0.45407

 -0.19828 = (-0.31297 + -0.08359)/2.0
 sum -  nocc_ = 0.08691358
 On Iteration in Bisection 3
 a: 0.08691  b:-0.45407

 -0.25563 = (-0.31297 + -0.19828)/2.0
 sum -  nocc_ = -0.18155141
 On Iteration in Bisection 4
 a: -0.18155  b:-0.45407

 -0.22695 = (-0.25563 + -0.19828)/2.0
 sum -  nocc_ = -0.04684933
 On Iteration in Bisection 5
 a: -0.04685  b:-0.18155

 -0.21262 = (-0.22695 + -0.19828)/2.0
 sum -  nocc_ = 0.01997546
 On Iteration in Bisection 6
 a: 0.01998  b:-0.04685

 -0.21979 = (-0.22695 + -0.21262)/2.0
 sum -  nocc_ = -0.01342719
 On Iteration in Bisection 7
 a: -0.01343  b:-0.04685

 -0.21620 = (-0.21979 + -0.21262)/2.0
 sum -  nocc_ = 0.00327353
 On Iteration in Bisection 8
 a: 0.00327  b:-0.01343

 -0.21799 = (-0.21979 + -0.21620)/2.0
 sum -  nocc_ = -0.00507660
 On Iteration in Bisection 9
 a: -0.00508  b:-0.01343

 -0.21710 = (-0.21799 + -0.21620)/2.0
 sum -  nocc_ = -0.00090152
 On Iteration in Bisection 10
 a: -0.00090  b:-0.00508

 -0.21665 = (-0.21710 + -0.21620)/2.0
 sum -  nocc_ = 0.00118600
 On Iteration in Bisection 11
 a: 0.00119  b:-0.00090

 -0.21687 = (-0.21710 + -0.21665)/2.0
 sum -  nocc_ = 0.00014224
 On Iteration in Bisection 12
 a: 0.00014  b:-0.00090

 -0.21699 = (-0.21710 + -0.21687)/2.0
 sum -  nocc_ = -0.00037964
 On Iteration in Bisection 13
 a: -0.00038  b:-0.00090

 -0.21693 = (-0.21699 + -0.21687)/2.0
 sum -  nocc_ = -0.00011870
 On Iteration in Bisection 14
 a: -0.00012  b:-0.00038

 -0.21690 = (-0.21693 + -0.21687)/2.0
 sum -  nocc_ = 0.00001177
 On Iteration in Bisection 15
 a: 0.00001  b:-0.00012

 -0.21692 = (-0.21693 + -0.21690)/2.0
 sum -  nocc_ = -0.00005347
 On Iteration in Bisection 16
 a: -0.00005  b:-0.00012

 -0.21691 = (-0.21692 + -0.21690)/2.0
 sum -  nocc_ = -0.00002085
 On Iteration in Bisection 17
 a: -0.00002  b:-0.00005

 -0.21691 = (-0.21691 + -0.21690)/2.0
 sum -  nocc_ = -0.00000454
 On Iteration in Bisection 18
 a: -0.00000  b:-0.00002

 -0.21690 = (-0.21691 + -0.21690)/2.0
 sum -  nocc_ = 0.00000361
 On Iteration in Bisection 19
 a: 0.00000  b:-0.00000

 -0.21690 = (-0.21691 + -0.21690)/2.0
 sum -  nocc_ = -0.00000046
 On Iteration in Bisection 20
 a: -0.00000  b:-0.00000

 -0.21690 = (-0.21690 + -0.21690)/2.0
 sum -  nocc_ = 0.00000158
 On Iteration in Bisection 21
 a: 0.00000  b:-0.00000

 -0.21690 = (-0.21690 + -0.21690)/2.0
 sum -  nocc_ = 0.00000056
 On Iteration in Bisection 22
 a: 0.00000  b:-0.00000

 -0.21690 = (-0.21690 + -0.21690)/2.0
 sum -  nocc_ = 0.00000005
 On Iteration in Bisection 23
 a: 0.00000  b:-0.00000

 -0.21690 = (-0.21690 + -0.21690)/2.0
 sum -  nocc_ = -0.00000021
 On Iteration in Bisection 24
 a: -0.00000  b:-0.00000

 -0.21690 = (-0.21690 + -0.21690)/2.0
 sum -  nocc_ = -0.00000008
 On Iteration in Bisection 25
 a: -0.00000  b:-0.00000

 -0.21690 = (-0.21690 + -0.21690)/2.0
 sum -  nocc_ = -0.00000002
 On Iteration in Bisection 26
 a: -0.00000  b:-0.00000

 -0.21690 = (-0.21690 + -0.21690)/2.0
 sum -  nocc_ = 0.00000002
 On Iteration in Bisection 27
 a: 0.00000  b:-0.00000

 -0.21690 = (-0.21690 + -0.21690)/2.0
 sum -  nocc_ = -0.00000000
 ef = -0.21690 sum = 1.00000 

 Iter: 36  T:    20000.000  val:-0.216905  sumni 0.00000
 ne = 1.0000

 iter:37  failiter:37  energy:     -0.994799870433  total:     -0.783128986997  error:     -0.000000000001
 In Bisection function HOMO = -0.313  LUMO =  1.522

 0.60453 = (-0.31297 + 1.52203)/2.0
 sum -  nocc_ = 1.69790652
 On Iteration in Bisection 0
 a: 1.69791  b:-0.45407

 0.14578 = (-0.31297 + 0.60453)/2.0
 sum -  nocc_ = 0.98545294
 On Iteration in Bisection 1
 a: 0.98545  b:-0.45407

 -0.08359 = (-0.31297 + 0.14578)/2.0
 sum -  nocc_ = 0.61690328
 On Iteration in Bisection 2
 a: 0.61690  b:-0.45407

 -0.19828 = (-0.31297 + -0.08359)/2.0
 sum -  nocc_ = 0.08691358
 On Iteration in Bisection 3
 a: 0.08691  b:-0.45407

 -0.25563 = (-0.31297 + -0.19828)/2.0
 sum -  nocc_ = -0.18155141
 On Iteration in Bisection 4
 a: -0.18155  b:-0.45407

 -0.22695 = (-0.25563 + -0.19828)/2.0
 sum -  nocc_ = -0.04684933
 On Iteration in Bisection 5
 a: -0.04685  b:-0.18155

 -0.21262 = (-0.22695 + -0.19828)/2.0
 sum -  nocc_ = 0.01997546
 On Iteration in Bisection 6
 a: 0.01998  b:-0.04685

 -0.21979 = (-0.22695 + -0.21262)/2.0
 sum -  nocc_ = -0.01342719
 On Iteration in Bisection 7
 a: -0.01343  b:-0.04685

 -0.21620 = (-0.21979 + -0.21262)/2.0
 sum -  nocc_ = 0.00327353
 On Iteration in Bisection 8
 a: 0.00327  b:-0.01343

 -0.21799 = (-0.21979 + -0.21620)/2.0
 sum -  nocc_ = -0.00507660
 On Iteration in Bisection 9
 a: -0.00508  b:-0.01343

 -0.21710 = (-0.21799 + -0.21620)/2.0
 sum -  nocc_ = -0.00090152
 On Iteration in Bisection 10
 a: -0.00090  b:-0.00508

 -0.21665 = (-0.21710 + -0.21620)/2.0
 sum -  nocc_ = 0.00118600
 On Iteration in Bisection 11
 a: 0.00119  b:-0.00090

 -0.21687 = (-0.21710 + -0.21665)/2.0
 sum -  nocc_ = 0.00014224
 On Iteration in Bisection 12
 a: 0.00014  b:-0.00090

 -0.21699 = (-0.21710 + -0.21687)/2.0
 sum -  nocc_ = -0.00037964
 On Iteration in Bisection 13
 a: -0.00038  b:-0.00090

 -0.21693 = (-0.21699 + -0.21687)/2.0
 sum -  nocc_ = -0.00011870
 On Iteration in Bisection 14
 a: -0.00012  b:-0.00038

 -0.21690 = (-0.21693 + -0.21687)/2.0
 sum -  nocc_ = 0.00001177
 On Iteration in Bisection 15
 a: 0.00001  b:-0.00012

 -0.21692 = (-0.21693 + -0.21690)/2.0
 sum -  nocc_ = -0.00005347
 On Iteration in Bisection 16
 a: -0.00005  b:-0.00012

 -0.21691 = (-0.21692 + -0.21690)/2.0
 sum -  nocc_ = -0.00002085
 On Iteration in Bisection 17
 a: -0.00002  b:-0.00005

 -0.21691 = (-0.21691 + -0.21690)/2.0
 sum -  nocc_ = -0.00000454
 On Iteration in Bisection 18
 a: -0.00000  b:-0.00002

 -0.21690 = (-0.21691 + -0.21690)/2.0
 sum -  nocc_ = 0.00000361
 On Iteration in Bisection 19
 a: 0.00000  b:-0.00000

 -0.21690 = (-0.21691 + -0.21690)/2.0
 sum -  nocc_ = -0.00000046
 On Iteration in Bisection 20
 a: -0.00000  b:-0.00000

 -0.21690 = (-0.21690 + -0.21690)/2.0
 sum -  nocc_ = 0.00000158
 On Iteration in Bisection 21
 a: 0.00000  b:-0.00000

 -0.21690 = (-0.21690 + -0.21690)/2.0
 sum -  nocc_ = 0.00000056
 On Iteration in Bisection 22
 a: 0.00000  b:-0.00000

 -0.21690 = (-0.21690 + -0.21690)/2.0
 sum -  nocc_ = 0.00000005
 On Iteration in Bisection 23
 a: 0.00000  b:-0.00000

 -0.21690 = (-0.21690 + -0.21690)/2.0
 sum -  nocc_ = -0.00000021
 On Iteration in Bisection 24
 a: -0.00000  b:-0.00000

 -0.21690 = (-0.21690 + -0.21690)/2.0
 sum -  nocc_ = -0.00000008
 On Iteration in Bisection 25
 a: -0.00000  b:-0.00000

 -0.21690 = (-0.21690 + -0.21690)/2.0
 sum -  nocc_ = -0.00000002
 On Iteration in Bisection 26
 a: -0.00000  b:-0.00000

 -0.21690 = (-0.21690 + -0.21690)/2.0
 sum -  nocc_ = 0.00000002
 On Iteration in Bisection 27
 a: 0.00000  b:-0.00000

 -0.21690 = (-0.21690 + -0.21690)/2.0
 sum -  nocc_ = -0.00000000
 ef = -0.21690 sum = 1.00000 

 Iter: 37  T:    20000.000  val:-0.216905  sumni 0.00000
 ne = 1.0000

 iter:38  failiter:38  energy:     -0.994799870433  total:     -0.783128986997  error:     -0.000000000001
 FTHFEnergy =    -0.783129
 FD_dis[0] = 0.82007198 with -0.312970 eig value
 FD_dis[1] = 0.17992542 with -0.120839 eig value
 FD_dis[2] = 0.00000174 with 0.622830 eig value
 FD_dis[3] = 0.00000086 with 0.667634 eig value
 FD_dis[4] = 0.00000000 with 1.454088 eig value
 FD_dis[5] = 0.00000000 with 1.464300 eig value
 FD_dis[6] = 0.00000000 with 1.464300 eig value
 FD_dis[7] = 0.00000000 with 1.470448 eig value
 FD_dis[8] = 0.00000000 with 1.470448 eig value
 FD_dis[9] = 0.00000000 with 1.522029 eig value
*** PSI4 exiting successfully. Buy a developer a beer!
