    -----------------------------------------------------------------------
          PSI4: An Open-Source Ab Initio Electronic Structure Package
                              PSI 4.0 Driver

               Git: Rev {master} 556e8139d3cfa1f96ccffe2cdf22cc56a185d2b2

    J. M. Turney, A. C. Simmonett, R. M. Parrish, E. G. Hohenstein,
    F. A. Evangelista, J. T. Fermann, B. J. Mintz, L. A. Burns, J. J. Wilke,
    M. L. Abrams, N. J. Russ, M. L. Leininger, C. L. Janssen, E. T. Seidl,
    W. D. Allen, H. F. Schaefer, R. A. King, E. F. Valeev, C. D. Sherrill,
    and T. D. Crawford, WIREs Comput. Mol. Sci. 2, 556-565 (2012)
    (doi: 10.1002/wcms.93)

                         Additional Contributions by
    A. E. DePrince, M. Saitow, U. Bozkaya, A. Yu. Sokolov
    -----------------------------------------------------------------------

    Process ID:  14577
    PSI4DATADIR: /Users/kevinhannon/Programs/psi4cmake/psi4/lib
    Memory level set to 256.000 MB

  ==> Input File <==

--------------------------------------------------------------------------

# PYTHONPATH must include directory above plugin directory.
#     Define either externally or here, then import plugin.
sys.path.insert(0, '/Users/kevinhannon/Programs/Quantum_Programs/Quantum-Programs/GS/')
import scf

molecule {
0 1
H
H 1 2.60000
symmetry c1
units angstrom
}


set {
  basis cc-pvdz
  reference rhf
  scf_type  pk
}

set scf {
  DO_FTHF true
  MAX_ITER 130
  MAX_TEMP 20000
  TEMP_INCREMENT 0
  bisect  true
  bisect_iter  40
}
energy('rhf')
energy('scf')


--------------------------------------------------------------------------

*** tstart() called on Kevins-MacBook-Pro.local
*** at Sun Apr 12 15:46:07 2015

/Users/kevinhannon/Programs/Quantum_Programs/Quantum-Programs/GS/scf/scf.so loaded.

*** tstart() called on Kevins-MacBook-Pro.local
*** at Sun Apr 12 15:46:07 2015


         ---------------------------------------------------------
                                   SCF
            by Justin Turney, Rob Parrish, and Andy Simmonett
                              RHF Reference
                        1 Threads,    256 MiB Core
         ---------------------------------------------------------

  ==> Geometry <==

    Molecular point group: c1
    Full point group: D_inf_h

    Geometry (in Angstrom), charge = 0, multiplicity = 1:

       Center              X                  Y                   Z       
    ------------   -----------------  -----------------  -----------------
           H          0.000000000000     0.000000000000    -1.300000000000
           H          0.000000000000     0.000000000000     1.300000000000

  Running in c1 symmetry.

  Rotational constants: A = ************  B =      4.94874  C =      4.94874 [cm^-1]
  Rotational constants: A = ************  B = 148359.49785  C = 148359.49785 [MHz]
  Nuclear repulsion =    0.203529695611538

  Charge       = 0
  Multiplicity = 1
  Electrons    = 2
  Nalpha       = 1
  Nbeta        = 1

  ==> Algorithm <==

  SCF Algorithm Type is PK.
  DIIS enabled.
  MOM disabled.
  Fractional occupation disabled.
  Guess Type is CORE.
  Energy threshold   = 1.00e-06
  Density threshold  = 1.00e-06
  Integral threshold = 0.00e+00

  ==> Primary Basis <==

  Basis Set: CC-PVDZ
    Number of shells: 6
    Number of basis function: 10
    Number of Cartesian functions: 10
    Spherical Harmonics?: true
    Max angular momentum: 1

  ==> Pre-Iterations <==

   -------------------------------------------------------
    Irrep   Nso     Nmo     Nalpha   Nbeta   Ndocc  Nsocc
   -------------------------------------------------------
     A         10      10       0       0       0       0
   -------------------------------------------------------
    Total      10      10       1       1       1       0
   -------------------------------------------------------

  Starting with a DF guess...

 OEINTS: Overlap, kinetic, potential, dipole, and quadrupole integrals
         stored in file 35.

  ==> Integral Setup <==

  ==> DFJK: Density-Fitted J/K Matrices <==

    J tasked:                  Yes
    K tasked:                  Yes
    wK tasked:                  No
    OpenMP threads:              1
    Integrals threads:           1
    Memory (MB):               183
    Algorithm:                Core
    Integral Cache:           NONE
    Schwarz Cutoff:          1E-12
    Fitting Condition:       1E-12

   => Auxiliary Basis Set <=

  Basis Set: 
    Number of shells: 18
    Number of basis function: 46
    Number of Cartesian functions: 50
    Spherical Harmonics?: true
    Max angular momentum: 2

  Minimum eigenvalue in the overlap matrix is 2.5136279051E-01.
  Using Symmetric Orthogonalization.
  SCF Guess: Core (One-Electron) Hamiltonian.

  ==> Iterations <==

                           Total Energy        Delta E     RMS |[F,P]|

   @DF-RHF iter   1:    -0.83747698787582   -8.37477e-01   1.25258e-02 
   @DF-RHF iter   2:    -0.85578526802137   -1.83083e-02   2.15580e-03 DIIS
   @DF-RHF iter   3:    -0.85635634314133   -5.71075e-04   3.33121e-05 DIIS
   @DF-RHF iter   4:    -0.85635644111475   -9.79734e-08   8.23463e-07 DIIS

  DF guess converged.

  ==> Integral Setup <==

 MINTS: Wrapper to libmints.
   by Justin Turney

   Calculation information:
      Number of atoms:                   2
      Number of AO shells:               6
      Number of SO shells:               6
      Number of primitives:             10
      Number of atomic orbitals:        10
      Number of basis functions:        10

      Number of irreps:                  1
      Integral cutoff                 0.00e+00
      Number of functions per irrep: [  10 ]

 OEINTS: Overlap, kinetic, potential, dipole, and quadrupole integrals
         stored in file 35.

      Computing two-electron integrals...done
      Computed 512 non-zero two-electron integrals.
        Stored in file 33.

	Batch   1 pq = [       0,      55] index = [             0,1540]
  ==> DiskJK: Disk-Based J/K Matrices <==

    J tasked:                  Yes
    K tasked:                  Yes
    wK tasked:                  No
    Memory (MB):               183
    Schwarz Cutoff:          1E-12

   @RHF iter   5:    -0.85633155565024    2.48855e-05   6.84061e-06 DIIS
   @RHF iter   6:    -0.85633156071700   -5.06676e-09   1.14895e-06 DIIS
   @RHF iter   7:    -0.85633156087287   -1.55872e-10   2.54930e-08 DIIS

  ==> Post-Iterations <==

    Orbital Energies (a.u.)
    -----------------------

    Doubly Occupied:                                                      

       1A     -0.343446  

    Virtual:                                                              

       2A     -0.092033     3A      0.616458     4A      0.671305  
       5A      1.459354     6A      1.462934     7A      1.462934  
       8A      1.468558     9A      1.468558    10A      1.507533  

    Final Occupation by Irrep:
              A 
    DOCC [     1 ]

  Energy converged.

  @RHF Final Energy:    -0.85633156087287

   => Energetics <=

    Nuclear Repulsion Energy =              0.2035296956115385
    One-Electron Energy =                  -1.4328295003168814
    Two-Electron Energy =                   0.3729682438324713
    DFT Exchange-Correlation Energy =       0.0000000000000000
    Empirical Dispersion Energy =           0.0000000000000000
    PCM Polarization Energy =               0.0000000000000000
    EFP Energy =                            0.0000000000000000
    Total Energy =                         -0.8563315608728717

    Alert: EFP and PCM quantities not currently incorporated into SCF psivars.

Properties will be evaluated at   0.000000,   0.000000,   0.000000 Bohr
  ==> Properties <==


Properties computed using the SCF density matrix

  Nuclear Dipole Moment: (a.u.)
     X:     0.0000      Y:     0.0000      Z:     0.0000

  Electronic Dipole Moment: (a.u.)
     X:     0.0000      Y:     0.0000      Z:    -0.0000

  Dipole Moment: (a.u.)
     X:     0.0000      Y:     0.0000      Z:    -0.0000     Total:     0.0000

  Dipole Moment: (Debye)
     X:     0.0000      Y:     0.0000      Z:    -0.0000     Total:     0.0000


  Saving occupied orbitals to File 180.

*** tstop() called on Kevins-MacBook-Pro.local at Sun Apr 12 15:46:07 2015
Module time:
	user time   =       0.20 seconds =       0.00 minutes
	system time =       0.01 seconds =       0.00 minutes
	total time  =          0 seconds =       0.00 minutes
Total time:
	user time   =       0.21 seconds =       0.00 minutes
	system time =       0.02 seconds =       0.00 minutes
	total time  =          0 seconds =       0.00 minutes

*** tstart() called on Kevins-MacBook-Pro.local
*** at Sun Apr 12 15:46:07 2015


         ---------------------------------------------------------
                                   SCF
            by Justin Turney, Rob Parrish, and Andy Simmonett
                              RHF Reference
                        1 Threads,    256 MiB Core
         ---------------------------------------------------------

  ==> Geometry <==

    Molecular point group: c1
    Full point group: D_inf_h

    Geometry (in Angstrom), charge = 0, multiplicity = 1:

       Center              X                  Y                   Z       
    ------------   -----------------  -----------------  -----------------
           H          0.000000000000     0.000000000000    -1.300000000000
           H          0.000000000000     0.000000000000     1.300000000000

  Running in c1 symmetry.

  Rotational constants: A = ************  B =      4.94874  C =      4.94874 [cm^-1]
  Rotational constants: A = ************  B = 148359.49785  C = 148359.49785 [MHz]
  Nuclear repulsion =    0.203529695611538

  Charge       = 0
  Multiplicity = 1
  Electrons    = 2
  Nalpha       = 1
  Nbeta        = 1

  ==> Algorithm <==

  SCF Algorithm Type is PK.
  DIIS enabled.
  MOM disabled.
  Fractional occupation disabled.
  Guess Type is CORE.
  Energy threshold   = 1.00e-08
  Density threshold  = 1.00e-08
  Integral threshold = 0.00e+00

  ==> Primary Basis <==

  Basis Set: CC-PVDZ
    Number of shells: 6
    Number of basis function: 10
    Number of Cartesian functions: 10
    Spherical Harmonics?: true
    Max angular momentum: 1

  ==> Pre-Iterations <==

   -------------------------------------------------------
    Irrep   Nso     Nmo     Nalpha   Nbeta   Ndocc  Nsocc
   -------------------------------------------------------
     A         10      10       0       0       0       0
   -------------------------------------------------------
    Total      10      10       1       1       1       0
   -------------------------------------------------------

  Starting with a DF guess...

 OEINTS: Overlap, kinetic, potential, dipole, and quadrupole integrals
         stored in file 35.

  ==> Integral Setup <==

  ==> DFJK: Density-Fitted J/K Matrices <==

    J tasked:                  Yes
    K tasked:                  Yes
    wK tasked:                  No
    OpenMP threads:              1
    Integrals threads:           1
    Memory (MB):               183
    Algorithm:                Core
    Integral Cache:           NONE
    Schwarz Cutoff:          1E-12
    Fitting Condition:       1E-12

   => Auxiliary Basis Set <=

  Basis Set: 
    Number of shells: 18
    Number of basis function: 46
    Number of Cartesian functions: 50
    Spherical Harmonics?: true
    Max angular momentum: 2

  Minimum eigenvalue in the overlap matrix is 2.5136279051E-01.
  Using Symmetric Orthogonalization.
  SCF Guess: Core (One-Electron) Hamiltonian.

  ==> Iterations <==

                           Total Energy        Delta E     RMS |[F,P]|

   @DF-RHF iter   1:    -0.83747698787582   -8.37477e-01   1.25258e-02 
   @DF-RHF iter   2:    -0.85578526802137   -1.83083e-02   2.15580e-03 DIIS
   @DF-RHF iter   3:    -0.85635634314133   -5.71075e-04   3.33121e-05 DIIS
   @DF-RHF iter   4:    -0.85635644111475   -9.79734e-08   8.23463e-07 DIIS
   @DF-RHF iter   5:    -0.85635644116961   -5.48532e-11   2.17912e-10 DIIS

  DF guess converged.

  ==> Integral Setup <==

 MINTS: Wrapper to libmints.
   by Justin Turney

   Calculation information:
      Number of atoms:                   2
      Number of AO shells:               6
      Number of SO shells:               6
      Number of primitives:             10
      Number of atomic orbitals:        10
      Number of basis functions:        10

      Number of irreps:                  1
      Integral cutoff                 0.00e+00
      Number of functions per irrep: [  10 ]

 OEINTS: Overlap, kinetic, potential, dipole, and quadrupole integrals
         stored in file 35.

      Computing two-electron integrals...done
      Computed 512 non-zero two-electron integrals.
        Stored in file 33.

	Batch   1 pq = [       0,      55] index = [             0,1540]
  ==> DiskJK: Disk-Based J/K Matrices <==

    J tasked:                  Yes
    K tasked:                  Yes
    wK tasked:                  No
    Memory (MB):               183
    Schwarz Cutoff:          1E-12

   @RHF iter   6:    -0.85633155565057    2.48855e-05   6.84039e-06 DIIS
   @RHF iter   7:    -0.85633156071701   -5.06644e-09   1.14891e-06 DIIS
   @RHF iter   8:    -0.85633156087287   -1.55862e-10   2.54922e-08 DIIS
   @RHF iter   9:    -0.85633156087293   -5.81757e-14   2.90203e-13 DIIS

  ==> Post-Iterations <==

    Orbital Energies (a.u.)
    -----------------------

    Doubly Occupied:                                                      

       1A     -0.343446  

    Virtual:                                                              

       2A     -0.092033     3A      0.616458     4A      0.671305  
       5A      1.459354     6A      1.462934     7A      1.462934  
       8A      1.468558     9A      1.468558    10A      1.507533  

    Final Occupation by Irrep:
              A 
    DOCC [     1 ]

  Energy converged.

  @RHF Final Energy:    -0.85633156087293

   => Energetics <=

    Nuclear Repulsion Energy =              0.2035296956115385
    One-Electron Energy =                  -1.4328295330554544
    Two-Electron Energy =                   0.3729682765709869
    DFT Exchange-Correlation Energy =       0.0000000000000000
    Empirical Dispersion Energy =           0.0000000000000000
    PCM Polarization Energy =               0.0000000000000000
    EFP Energy =                            0.0000000000000000
    Total Energy =                         -0.8563315608729291

    Alert: EFP and PCM quantities not currently incorporated into SCF psivars.

Properties will be evaluated at   0.000000,   0.000000,   0.000000 Bohr
  ==> Properties <==


Properties computed using the SCF density matrix

  Nuclear Dipole Moment: (a.u.)
     X:     0.0000      Y:     0.0000      Z:     0.0000

  Electronic Dipole Moment: (a.u.)
     X:    -0.0000      Y:     0.0000      Z:     0.0000

  Dipole Moment: (a.u.)
     X:    -0.0000      Y:     0.0000      Z:     0.0000     Total:     0.0000

  Dipole Moment: (Debye)
     X:    -0.0000      Y:     0.0000      Z:     0.0000     Total:     0.0000


  Saving occupied orbitals to File 180.

*** tstop() called on Kevins-MacBook-Pro.local at Sun Apr 12 15:46:07 2015
Module time:
	user time   =       0.20 seconds =       0.00 minutes
	system time =       0.01 seconds =       0.00 minutes
	total time  =          0 seconds =       0.00 minutes
Total time:
	user time   =       0.42 seconds =       0.01 minutes
	system time =       0.03 seconds =       0.00 minutes
	total time  =          0 seconds =       0.00 minutes
Reading options from the SCF block
Calling plugin scf.so.
    Molecular point group: c1
    Full point group: D_inf_h

    Geometry (in Angstrom), charge = 0, multiplicity = 1:

       Center              X                  Y                   Z       
    ------------   -----------------  -----------------  -----------------
           H          0.000000000000     0.000000000000    -1.300000000000
           H          0.000000000000     0.000000000000     1.300000000000


    Nuclear repulsion energy:       0.20352970

  ## Overlap (Symmetry 0) ##
  Irrep: 1 Size: 10 x 10

                 1                   2                   3                   4                   5

    1     1.00000000000000     0.68486025149275     0.00000000000000     0.00000000000000     0.00000000000000
    2     0.68486025149275     1.00000000000000     0.00000000000000     0.00000000000000     0.00000000000000
    3     0.00000000000000     0.00000000000000     1.00000000000000     0.00000000000000     0.00000000000000
    4     0.00000000000000     0.00000000000000     0.00000000000000     1.00000000000000     0.00000000000000
    5     0.00000000000000     0.00000000000000     0.00000000000000     0.00000000000000     1.00000000000000
    6     0.00313425369719     0.06501587965571     0.00317252653404     0.00000000000000     0.00000000000000
    7     0.06501587965571     0.22933664152634     0.05681598845873     0.00000000000000     0.00000000000000
    8    -0.00317252653404    -0.05681598845873    -0.00255770598908     0.00000000000000     0.00000000000000
    9     0.00000000000000     0.00000000000000     0.00000000000000     0.00015454351802     0.00000000000000
   10     0.00000000000000     0.00000000000000     0.00000000000000     0.00000000000000     0.00015454351802

                 6                   7                   8                   9                  10

    1     0.00313425369719     0.06501587965571    -0.00317252653404     0.00000000000000     0.00000000000000
    2     0.06501587965571     0.22933664152634    -0.05681598845873     0.00000000000000     0.00000000000000
    3     0.00317252653404     0.05681598845873    -0.00255770598908     0.00000000000000     0.00000000000000
    4     0.00000000000000     0.00000000000000     0.00000000000000     0.00015454351802     0.00000000000000
    5     0.00000000000000     0.00000000000000     0.00000000000000     0.00000000000000     0.00015454351802
    6     1.00000000000000     0.68486025149275    -0.00000000000000     0.00000000000000     0.00000000000000
    7     0.68486025149275     1.00000000000000    -0.00000000000000     0.00000000000000     0.00000000000000
    8    -0.00000000000000    -0.00000000000000     1.00000000000000     0.00000000000000     0.00000000000000
    9     0.00000000000000     0.00000000000000     0.00000000000000     1.00000000000000     0.00000000000000
   10     0.00000000000000     0.00000000000000     0.00000000000000     0.00000000000000     1.00000000000000



  ## Kinetic (Symmetry 0) ##
  Irrep: 1 Size: 10 x 10

                 1                   2                   3                   4                   5

    1     0.96945722711242     0.20123413106538    -0.00000000000000     0.00000000000000     0.00000000000000
    2     0.20123413106538     0.18300000000000     0.00000000000000     0.00000000000000     0.00000000000000
    3    -0.00000000000000     0.00000000000000     1.81750000000000     0.00000000000000     0.00000000000000
    4     0.00000000000000     0.00000000000000     0.00000000000000     1.81750000000000     0.00000000000000
    5     0.00000000000000     0.00000000000000     0.00000000000000     0.00000000000000     1.81750000000000
    6    -0.00553637945932    -0.01077090865322    -0.00731048880558     0.00000000000000     0.00000000000000
    7    -0.01077090865322     0.00076762525050    -0.00026019009697     0.00000000000000     0.00000000000000
    8     0.00731048880558     0.00026019009697     0.00969632226965     0.00000000000000     0.00000000000000
    9     0.00000000000000     0.00000000000000     0.00000000000000    -0.00070501985183     0.00000000000000
   10     0.00000000000000     0.00000000000000     0.00000000000000     0.00000000000000    -0.00070501985183

                 6                   7                   8                   9                  10

    1    -0.00553637945932    -0.01077090865322     0.00731048880558     0.00000000000000     0.00000000000000
    2    -0.01077090865322     0.00076762525050     0.00026019009697     0.00000000000000     0.00000000000000
    3    -0.00731048880558    -0.00026019009697     0.00969632226965     0.00000000000000     0.00000000000000
    4     0.00000000000000     0.00000000000000     0.00000000000000    -0.00070501985183     0.00000000000000
    5     0.00000000000000     0.00000000000000     0.00000000000000     0.00000000000000    -0.00070501985183
    6     0.96945722711242     0.20123413106538     0.00000000000000     0.00000000000000     0.00000000000000
    7     0.20123413106538     0.18300000000000    -0.00000000000000     0.00000000000000     0.00000000000000
    8     0.00000000000000    -0.00000000000000     1.81750000000000     0.00000000000000     0.00000000000000
    9     0.00000000000000     0.00000000000000     0.00000000000000     1.81750000000000     0.00000000000000
   10     0.00000000000000     0.00000000000000     0.00000000000000     0.00000000000000     1.81750000000000



  ## Potential (Symmetry 0) ##
  Irrep: 1 Size: 10 x 10

                 1                   2                   3                   4                   5

    1    -1.58139148029318    -0.78909658331191    -0.02606108081463     0.00000000000000     0.00000000000000
    2    -0.78909658331191    -0.76078606706514    -0.02444664228670     0.00000000000000     0.00000000000000
    3    -0.02606108081463    -0.02444664228670    -1.11640910021613     0.00000000000000     0.00000000000000
    4     0.00000000000000     0.00000000000000     0.00000000000000    -1.10771128450122     0.00000000000000
    5     0.00000000000000     0.00000000000000     0.00000000000000     0.00000000000000    -1.10771128450122
    6    -0.00257025141563    -0.06660140074595    -0.00261379067015     0.00000000000000     0.00000000000000
    7    -0.06660140074595    -0.17062489291953    -0.05250960306780     0.00000000000000     0.00000000000000
    8     0.00261379067015     0.05250960306780     0.00206795297858     0.00000000000000     0.00000000000000
    9     0.00000000000000     0.00000000000000     0.00000000000000    -0.00011864814491     0.00000000000000
   10     0.00000000000000     0.00000000000000     0.00000000000000     0.00000000000000    -0.00011864814491

                 6                   7                   8                   9                  10

    1    -0.00257025141563    -0.06660140074595     0.00261379067015     0.00000000000000     0.00000000000000
    2    -0.06660140074595    -0.17062489291953     0.05250960306780     0.00000000000000     0.00000000000000
    3    -0.00261379067015    -0.05250960306780     0.00206795297858     0.00000000000000     0.00000000000000
    4     0.00000000000000     0.00000000000000     0.00000000000000    -0.00011864814491     0.00000000000000
    5     0.00000000000000     0.00000000000000     0.00000000000000     0.00000000000000    -0.00011864814491
    6    -1.58139148029318    -0.78909658331191     0.02606108081463     0.00000000000000     0.00000000000000
    7    -0.78909658331191    -0.76078606706514     0.02444664228670     0.00000000000000     0.00000000000000
    8     0.02606108081463     0.02444664228670    -1.11640910021613     0.00000000000000     0.00000000000000
    9     0.00000000000000     0.00000000000000     0.00000000000000    -1.10771128450122     0.00000000000000
   10     0.00000000000000     0.00000000000000     0.00000000000000     0.00000000000000    -1.10771128450122



  ## One Electron Ints (Symmetry 0) ##
  Irrep: 1 Size: 10 x 10

                 1                   2                   3                   4                   5

    1    -0.61193425318075    -0.58786245224653    -0.02606108081463     0.00000000000000     0.00000000000000
    2    -0.58786245224653    -0.57778606706514    -0.02444664228670     0.00000000000000     0.00000000000000
    3    -0.02606108081463    -0.02444664228670     0.70109089978387     0.00000000000000     0.00000000000000
    4     0.00000000000000     0.00000000000000     0.00000000000000     0.70978871549878     0.00000000000000
    5     0.00000000000000     0.00000000000000     0.00000000000000     0.00000000000000     0.70978871549878
    6    -0.00810663087495    -0.07737230939916    -0.00992427947572     0.00000000000000     0.00000000000000
    7    -0.07737230939916    -0.16985726766904    -0.05276979316477     0.00000000000000     0.00000000000000
    8     0.00992427947572     0.05276979316477     0.01176427524823     0.00000000000000     0.00000000000000
    9     0.00000000000000     0.00000000000000     0.00000000000000    -0.00082366799674     0.00000000000000
   10     0.00000000000000     0.00000000000000     0.00000000000000     0.00000000000000    -0.00082366799674

                 6                   7                   8                   9                  10

    1    -0.00810663087495    -0.07737230939916     0.00992427947572     0.00000000000000     0.00000000000000
    2    -0.07737230939916    -0.16985726766904     0.05276979316477     0.00000000000000     0.00000000000000
    3    -0.00992427947572    -0.05276979316477     0.01176427524823     0.00000000000000     0.00000000000000
    4     0.00000000000000     0.00000000000000     0.00000000000000    -0.00082366799674     0.00000000000000
    5     0.00000000000000     0.00000000000000     0.00000000000000     0.00000000000000    -0.00082366799674
    6    -0.61193425318075    -0.58786245224653     0.02606108081463     0.00000000000000     0.00000000000000
    7    -0.58786245224653    -0.57778606706514     0.02444664228670     0.00000000000000     0.00000000000000
    8     0.02606108081463     0.02444664228670     0.70109089978387     0.00000000000000     0.00000000000000
    9     0.00000000000000     0.00000000000000     0.00000000000000     0.70978871549878     0.00000000000000
   10     0.00000000000000     0.00000000000000     0.00000000000000     0.00000000000000     0.70978871549878




	There are 0 unique integrals

  ## Fock (Symmetry 0) ##
  Irrep: 1 Size: 10 x 10

                 1                   2                   3                   4                   5

    1    -0.37898093991762    -0.35256801940910    -0.02691851621886    -0.00000000000000     0.00000000000000
    2    -0.35256801940910    -0.30865199917050    -0.00072242572795     0.00000000000000     0.00000000000000
    3    -0.02691851621886    -0.00072242572795     0.70743576369072     0.00000000000000     0.00000000000000
    4    -0.00000000000000     0.00000000000000     0.00000000000000     0.70978885974371     0.00000000000000
    5     0.00000000000000     0.00000000000000     0.00000000000000     0.00000000000000     0.70978885974371
    6     0.00252012797510     0.01095763664345     0.03810921065187    -0.00000000000000     0.00000000000000
    7     0.01095763664345    -0.07685916557776    -0.08381764556458    -0.00000000000000     0.00000000000000
    8    -0.03810921065187     0.08381764556458     0.01413648323351     0.00000000000000     0.00000000000000
    9    -0.00000000000000     0.00000000000000    -0.00000000000000    -0.00093336126418     0.00000000000000
   10     0.00000000000000     0.00000000000000     0.00000000000000     0.00000000000000    -0.00093336126418

                 6                   7                   8                   9                  10

    1     0.00252012797510     0.01095763664345    -0.03810921065187    -0.00000000000000     0.00000000000000
    2     0.01095763664345    -0.07685916557776     0.08381764556458     0.00000000000000     0.00000000000000
    3     0.03810921065187    -0.08381764556458     0.01413648323351    -0.00000000000000     0.00000000000000
    4    -0.00000000000000    -0.00000000000000     0.00000000000000    -0.00093336126418     0.00000000000000
    5     0.00000000000000     0.00000000000000     0.00000000000000     0.00000000000000    -0.00093336126418
    6    -0.37898093991762    -0.35256801940910     0.02691851621886    -0.00000000000000     0.00000000000000
    7    -0.35256801940910    -0.30865199917050     0.00072242572795    -0.00000000000000     0.00000000000000
    8     0.02691851621886     0.00072242572795     0.70743576369073     0.00000000000000     0.00000000000000
    9    -0.00000000000000    -0.00000000000000     0.00000000000000     0.70978885974371     0.00000000000000
   10     0.00000000000000     0.00000000000000     0.00000000000000     0.00000000000000     0.70978885974371



  ## C (Symmetry 0) ##
  Irrep: 1 Size: 10 x 10

                 1                   2                   3                   4                   5

    1    -0.34968181068977    -0.41271636561462    -0.03398654331048    -0.03965753793135     0.02005259832738
    2    -0.46091364448536    -0.33058847678691     0.01455595878765     0.13436264054689    -0.05897187972977
    3     0.50239644546119    -0.49440457990468    -0.06387997893611     0.03143293244644    -0.01379737711485
    4     0.44160817641880    -0.54130572741651     0.10940903501324    -0.00005456163266     0.00000291388065
    5    -0.02738960736073     0.06335285780411    -0.70367704658912     0.00000000000001     0.00000000000000
    6    -0.01433063909787    -0.02987118877240    -0.00100394400889     0.44408744681667    -0.87579223257214
    7     0.05359600232501     0.07669990156396     0.00105938329350    -0.96133582740586     0.29675553078442
    8    -0.01203794875221    -0.00917847753643     0.00049896322268    -0.03147676678253    -0.70907280893505
    9    -0.00003412384079     0.00004182764597    -0.00000845422863     0.70610056037219    -0.03770951601817
   10     0.06832540466323    -0.08546487593975    -0.69853600847623    -0.00000000000000     0.00000000000000

                 6                   7                   8                   9                  10

    1    -0.92287428156091    -0.88011235476061     0.03286820877678    -0.04127602797563    -0.01025319309896
    2     0.98691255949926     0.85000651549277    -0.01173115887314     0.13759840325402     0.00161690798266
    3     0.51192298645974    -0.48663639159196     0.06389856581631     0.03156170781988    -0.01138609283023
    4    -0.44160817641880     0.54130572741652     0.10940903501324     0.00005456163266    -0.00000291388065
    5    -0.02737904843928     0.06333965051791     0.70378500920581    -0.00000000000000     0.00000000000000
    6     0.04754124805382     0.02058075078579     0.00112465994914     0.44431708379007    -0.87149234191419
    7    -0.15273346380348    -0.09154649002686    -0.00146194504895    -0.96199136604814     0.28448074575082
    8     0.03498540592314     0.02916558399328    -0.00040721770247     0.04408531406614     0.70580686240507
    9     0.00003412384079    -0.00004182764597    -0.00000845422864    -0.70610056037240     0.03770951601811
   10    -0.06832117259283     0.08545508618672    -0.69864476554568     0.00000000000000    -0.00000000000000




 In Bisection function HOMO = -0.725  LUMO =  0.738

 0.00677 = (-0.72457 + 0.73810)/2.0
 sum -  nocc_ = 2.03805457
 On Iteration in Bisection 0
 a: 2.03805  b:-0.17661

 -0.35890 = (-0.72457 + 0.00677)/2.0
 sum -  nocc_ = 0.99909753
 On Iteration in Bisection 1
 a: 0.99910  b:-0.17661

 -0.54173 = (-0.72457 + -0.35890)/2.0
 sum -  nocc_ = 0.84320737
 On Iteration in Bisection 2
 a: 0.84321  b:-0.17661

 -0.63315 = (-0.72457 + -0.54173)/2.0
 sum -  nocc_ = 0.47840988
 On Iteration in Bisection 3
 a: 0.47841  b:-0.17661

 -0.67886 = (-0.72457 + -0.63315)/2.0
 sum -  nocc_ = 0.16887699
 On Iteration in Bisection 4
 a: 0.16888  b:-0.17661

 -0.70171 = (-0.72457 + -0.67886)/2.0
 sum -  nocc_ = -0.00398644
 On Iteration in Bisection 5
 a: -0.00399  b:-0.17661

 -0.69028 = (-0.70171 + -0.67886)/2.0
 sum -  nocc_ = 0.08304608
 On Iteration in Bisection 6
 a: 0.08305  b:-0.00399

 -0.69600 = (-0.70171 + -0.69028)/2.0
 sum -  nocc_ = 0.03960191
 On Iteration in Bisection 7
 a: 0.03960  b:-0.00399

 -0.69885 = (-0.70171 + -0.69600)/2.0
 sum -  nocc_ = 0.01781583
 On Iteration in Bisection 8
 a: 0.01782  b:-0.00399

 -0.70028 = (-0.70171 + -0.69885)/2.0
 sum -  nocc_ = 0.00691547
 On Iteration in Bisection 9
 a: 0.00692  b:-0.00399

 -0.70100 = (-0.70171 + -0.70028)/2.0
 sum -  nocc_ = 0.00146455
 On Iteration in Bisection 10
 a: 0.00146  b:-0.00399

 -0.70135 = (-0.70171 + -0.70100)/2.0
 sum -  nocc_ = -0.00126095
 On Iteration in Bisection 11
 a: -0.00126  b:-0.00399

 -0.70118 = (-0.70135 + -0.70100)/2.0
 sum -  nocc_ = 0.00010180
 On Iteration in Bisection 12
 a: 0.00010  b:-0.00126

 -0.70127 = (-0.70135 + -0.70118)/2.0
 sum -  nocc_ = -0.00057958
 On Iteration in Bisection 13
 a: -0.00058  b:-0.00126

 -0.70122 = (-0.70127 + -0.70118)/2.0
 sum -  nocc_ = -0.00023889
 On Iteration in Bisection 14
 a: -0.00024  b:-0.00058

 -0.70120 = (-0.70122 + -0.70118)/2.0
 sum -  nocc_ = -0.00006854
 On Iteration in Bisection 15
 a: -0.00007  b:-0.00024

 -0.70119 = (-0.70120 + -0.70118)/2.0
 sum -  nocc_ = 0.00001663
 On Iteration in Bisection 16
 a: 0.00002  b:-0.00007

 -0.70119 = (-0.70120 + -0.70119)/2.0
 sum -  nocc_ = -0.00002596
 On Iteration in Bisection 17
 a: -0.00003  b:-0.00007

 -0.70119 = (-0.70119 + -0.70119)/2.0
 sum -  nocc_ = -0.00000467
 On Iteration in Bisection 18
 a: -0.00000  b:-0.00003

 -0.70119 = (-0.70119 + -0.70119)/2.0
 sum -  nocc_ = 0.00000598
 On Iteration in Bisection 19
 a: 0.00001  b:-0.00000

 -0.70119 = (-0.70119 + -0.70119)/2.0
 sum -  nocc_ = 0.00000066
 On Iteration in Bisection 20
 a: 0.00000  b:-0.00000

 -0.70119 = (-0.70119 + -0.70119)/2.0
 sum -  nocc_ = -0.00000200
 On Iteration in Bisection 21
 a: -0.00000  b:-0.00000

 -0.70119 = (-0.70119 + -0.70119)/2.0
 sum -  nocc_ = -0.00000067
 On Iteration in Bisection 22
 a: -0.00000  b:-0.00000

 -0.70119 = (-0.70119 + -0.70119)/2.0
 sum -  nocc_ = -0.00000001
 ef = -0.70119 sum = 1.00000 

 Iter: 0  T:    20000.000  val:-0.701189  sumni 0.00000
 ne = 1.0000

Nuc Replusion =       0.203529695612
 1st iteration =      -0.001850861624
 In Bisection function HOMO = -0.303  LUMO =  1.952

 0.82483 = (-0.30278 + 1.95244)/2.0
 sum -  nocc_ = 2.09079574
 On Iteration in Bisection 0
 a: 2.09080  b:-0.49869

 0.26102 = (-0.30278 + 0.82483)/2.0
 sum -  nocc_ = 1.01532398
 On Iteration in Bisection 1
 a: 1.01532  b:-0.49869

 -0.02088 = (-0.30278 + 0.26102)/2.0
 sum -  nocc_ = 0.08972175
 On Iteration in Bisection 2
 a: 0.08972  b:-0.49869

 -0.16183 = (-0.30278 + -0.02088)/2.0
 sum -  nocc_ = -0.08548797
 On Iteration in Bisection 3
 a: -0.08549  b:-0.49869

 -0.09136 = (-0.16183 + -0.02088)/2.0
 sum -  nocc_ = 0.00135336
 On Iteration in Bisection 4
 a: 0.00135  b:-0.08549

 -0.12659 = (-0.16183 + -0.09136)/2.0
 sum -  nocc_ = -0.03757276
 On Iteration in Bisection 5
 a: -0.03757  b:-0.08549

 -0.10898 = (-0.12659 + -0.09136)/2.0
 sum -  nocc_ = -0.01757296
 On Iteration in Bisection 6
 a: -0.01757  b:-0.03757

 -0.10017 = (-0.10898 + -0.09136)/2.0
 sum -  nocc_ = -0.00804849
 On Iteration in Bisection 7
 a: -0.00805  b:-0.01757

 -0.09576 = (-0.10017 + -0.09136)/2.0
 sum -  nocc_ = -0.00334133
 On Iteration in Bisection 8
 a: -0.00334  b:-0.00805

 -0.09356 = (-0.09576 + -0.09136)/2.0
 sum -  nocc_ = -0.00099356
 On Iteration in Bisection 9
 a: -0.00099  b:-0.00334

 -0.09246 = (-0.09356 + -0.09136)/2.0
 sum -  nocc_ = 0.00017986
 On Iteration in Bisection 10
 a: 0.00018  b:-0.00099

 -0.09301 = (-0.09356 + -0.09246)/2.0
 sum -  nocc_ = -0.00040684
 On Iteration in Bisection 11
 a: -0.00041  b:-0.00099

 -0.09273 = (-0.09301 + -0.09246)/2.0
 sum -  nocc_ = -0.00011349
 On Iteration in Bisection 12
 a: -0.00011  b:-0.00041

 -0.09260 = (-0.09273 + -0.09246)/2.0
 sum -  nocc_ = 0.00003318
 On Iteration in Bisection 13
 a: 0.00003  b:-0.00011

 -0.09266 = (-0.09273 + -0.09260)/2.0
 sum -  nocc_ = -0.00004015
 On Iteration in Bisection 14
 a: -0.00004  b:-0.00011

 -0.09263 = (-0.09266 + -0.09260)/2.0
 sum -  nocc_ = -0.00000348
 On Iteration in Bisection 15
 a: -0.00000  b:-0.00004

 -0.09261 = (-0.09263 + -0.09260)/2.0
 sum -  nocc_ = 0.00001485
 On Iteration in Bisection 16
 a: 0.00001  b:-0.00000

 -0.09262 = (-0.09263 + -0.09261)/2.0
 sum -  nocc_ = 0.00000568
 On Iteration in Bisection 17
 a: 0.00001  b:-0.00000

 -0.09263 = (-0.09263 + -0.09262)/2.0
 sum -  nocc_ = 0.00000110
 On Iteration in Bisection 18
 a: 0.00000  b:-0.00000

 -0.09263 = (-0.09263 + -0.09263)/2.0
 sum -  nocc_ = -0.00000119
 On Iteration in Bisection 19
 a: -0.00000  b:-0.00000

 -0.09263 = (-0.09263 + -0.09263)/2.0
 sum -  nocc_ = -0.00000005
 On Iteration in Bisection 20
 a: -0.00000  b:-0.00000

 -0.09263 = (-0.09263 + -0.09263)/2.0
 sum -  nocc_ = 0.00000053
 On Iteration in Bisection 21
 a: 0.00000  b:-0.00000

 -0.09263 = (-0.09263 + -0.09263)/2.0
 sum -  nocc_ = 0.00000024
 On Iteration in Bisection 22
 a: 0.00000  b:-0.00000

 -0.09263 = (-0.09263 + -0.09263)/2.0
 sum -  nocc_ = 0.00000010
 On Iteration in Bisection 23
 a: 0.00000  b:-0.00000

 -0.09263 = (-0.09263 + -0.09263)/2.0
 sum -  nocc_ = 0.00000003
 On Iteration in Bisection 24
 a: 0.00000  b:-0.00000

 -0.09263 = (-0.09263 + -0.09263)/2.0
 sum -  nocc_ = -0.00000001
 On Iteration in Bisection 25
 a: -0.00000  b:-0.00000

 -0.09263 = (-0.09263 + -0.09263)/2.0
 sum -  nocc_ = 0.00000001
 ef = -0.09263 sum = 1.00000 

 Iter: 0  T:    20000.000  val:-0.092627  sumni 0.00000
 ne = 1.0000

 iter:1  failiter:1  energy:     -0.986593067320  total:     -0.783063371709  error:     -0.130261506447
 In Bisection function HOMO = -0.302  LUMO =  1.879

 0.78862 = (-0.30178 + 1.87903)/2.0
 sum -  nocc_ = 2.14954488
 On Iteration in Bisection 0
 a: 2.14954  b:-0.45538

 0.24342 = (-0.30178 + 0.78862)/2.0
 sum -  nocc_ = 1.06723661
 On Iteration in Bisection 1
 a: 1.06724  b:-0.45538

 -0.02918 = (-0.30178 + 0.24342)/2.0
 sum -  nocc_ = 0.76326466
 On Iteration in Bisection 2
 a: 0.76326  b:-0.45538

 -0.16548 = (-0.30178 + -0.02918)/2.0
 sum -  nocc_ = 0.18254411
 On Iteration in Bisection 3
 a: 0.18254  b:-0.45538

 -0.23363 = (-0.30178 + -0.16548)/2.0
 sum -  nocc_ = -0.13376674
 On Iteration in Bisection 4
 a: -0.13377  b:-0.45538

 -0.19956 = (-0.23363 + -0.16548)/2.0
 sum -  nocc_ = 0.02402014
 On Iteration in Bisection 5
 a: 0.02402  b:-0.13377

 -0.21659 = (-0.23363 + -0.19956)/2.0
 sum -  nocc_ = -0.05465022
 On Iteration in Bisection 6
 a: -0.05465  b:-0.13377

 -0.20808 = (-0.21659 + -0.19956)/2.0
 sum -  nocc_ = -0.01529868
 On Iteration in Bisection 7
 a: -0.01530  b:-0.05465

 -0.20382 = (-0.20808 + -0.19956)/2.0
 sum -  nocc_ = 0.00435938
 On Iteration in Bisection 8
 a: 0.00436  b:-0.01530

 -0.20595 = (-0.20808 + -0.20382)/2.0
 sum -  nocc_ = -0.00546930
 On Iteration in Bisection 9
 a: -0.00547  b:-0.01530

 -0.20488 = (-0.20595 + -0.20382)/2.0
 sum -  nocc_ = -0.00055496
 On Iteration in Bisection 10
 a: -0.00055  b:-0.00547

 -0.20435 = (-0.20488 + -0.20382)/2.0
 sum -  nocc_ = 0.00190220
 On Iteration in Bisection 11
 a: 0.00190  b:-0.00055

 -0.20462 = (-0.20488 + -0.20435)/2.0
 sum -  nocc_ = 0.00067362
 On Iteration in Bisection 12
 a: 0.00067  b:-0.00055

 -0.20475 = (-0.20488 + -0.20462)/2.0
 sum -  nocc_ = 0.00005933
 On Iteration in Bisection 13
 a: 0.00006  b:-0.00055

 -0.20481 = (-0.20488 + -0.20475)/2.0
 sum -  nocc_ = -0.00024781
 On Iteration in Bisection 14
 a: -0.00025  b:-0.00055

 -0.20478 = (-0.20481 + -0.20475)/2.0
 sum -  nocc_ = -0.00009424
 On Iteration in Bisection 15
 a: -0.00009  b:-0.00025

 -0.20476 = (-0.20478 + -0.20475)/2.0
 sum -  nocc_ = -0.00001746
 On Iteration in Bisection 16
 a: -0.00002  b:-0.00009

 -0.20476 = (-0.20476 + -0.20475)/2.0
 sum -  nocc_ = 0.00002094
 On Iteration in Bisection 17
 a: 0.00002  b:-0.00002

 -0.20476 = (-0.20476 + -0.20476)/2.0
 sum -  nocc_ = 0.00000174
 On Iteration in Bisection 18
 a: 0.00000  b:-0.00002

 -0.20476 = (-0.20476 + -0.20476)/2.0
 sum -  nocc_ = -0.00000786
 On Iteration in Bisection 19
 a: -0.00001  b:-0.00002

 -0.20476 = (-0.20476 + -0.20476)/2.0
 sum -  nocc_ = -0.00000306
 On Iteration in Bisection 20
 a: -0.00000  b:-0.00001

 -0.20476 = (-0.20476 + -0.20476)/2.0
 sum -  nocc_ = -0.00000066
 On Iteration in Bisection 21
 a: -0.00000  b:-0.00000

 -0.20476 = (-0.20476 + -0.20476)/2.0
 sum -  nocc_ = 0.00000054
 On Iteration in Bisection 22
 a: 0.00000  b:-0.00000

 -0.20476 = (-0.20476 + -0.20476)/2.0
 sum -  nocc_ = -0.00000006
 On Iteration in Bisection 23
 a: -0.00000  b:-0.00000

 -0.20476 = (-0.20476 + -0.20476)/2.0
 sum -  nocc_ = 0.00000024
 On Iteration in Bisection 24
 a: 0.00000  b:-0.00000

 -0.20476 = (-0.20476 + -0.20476)/2.0
 sum -  nocc_ = 0.00000009
 On Iteration in Bisection 25
 a: 0.00000  b:-0.00000

 -0.20476 = (-0.20476 + -0.20476)/2.0
 sum -  nocc_ = 0.00000002
 On Iteration in Bisection 26
 a: 0.00000  b:-0.00000

 -0.20476 = (-0.20476 + -0.20476)/2.0
 sum -  nocc_ = -0.00000002
 On Iteration in Bisection 27
 a: -0.00000  b:-0.00000

 -0.20476 = (-0.20476 + -0.20476)/2.0
 sum -  nocc_ = -0.00000000
 ef = -0.20476 sum = 1.00000 

 Iter: 1  T:    20000.000  val:-0.204761  sumni 0.00000
 ne = 1.0000

 iter:2  failiter:2  energy:     -0.967712469399  total:     -0.764182773787  error:      0.018880597921
 In Bisection function HOMO = -0.285  LUMO =  1.749

 0.73212 = (-0.28473 + 1.74897)/2.0
 sum -  nocc_ = 2.17222978
 On Iteration in Bisection 0
 a: 2.17223  b:-0.42134

 0.22370 = (-0.28473 + 0.73212)/2.0
 sum -  nocc_ = 1.01232317
 On Iteration in Bisection 1
 a: 1.01232  b:-0.42134

 -0.03052 = (-0.28473 + 0.22370)/2.0
 sum -  nocc_ = 0.80793901
 On Iteration in Bisection 2
 a: 0.80794  b:-0.42134

 -0.15762 = (-0.28473 + -0.03052)/2.0
 sum -  nocc_ = 0.27003801
 On Iteration in Bisection 3
 a: 0.27004  b:-0.42134

 -0.22118 = (-0.28473 + -0.15762)/2.0
 sum -  nocc_ = -0.07935059
 On Iteration in Bisection 4
 a: -0.07935  b:-0.42134

 -0.18940 = (-0.22118 + -0.15762)/2.0
 sum -  nocc_ = 0.09615986
 On Iteration in Bisection 5
 a: 0.09616  b:-0.07935

 -0.20529 = (-0.22118 + -0.18940)/2.0
 sum -  nocc_ = 0.00841803
 On Iteration in Bisection 6
 a: 0.00842  b:-0.07935

 -0.21323 = (-0.22118 + -0.20529)/2.0
 sum -  nocc_ = -0.03548085
 On Iteration in Bisection 7
 a: -0.03548  b:-0.07935

 -0.20926 = (-0.21323 + -0.20529)/2.0
 sum -  nocc_ = -0.01353279
 On Iteration in Bisection 8
 a: -0.01353  b:-0.03548

 -0.20727 = (-0.20926 + -0.20529)/2.0
 sum -  nocc_ = -0.00255745
 On Iteration in Bisection 9
 a: -0.00256  b:-0.01353

 -0.20628 = (-0.20727 + -0.20529)/2.0
 sum -  nocc_ = 0.00293030
 On Iteration in Bisection 10
 a: 0.00293  b:-0.00256

 -0.20678 = (-0.20727 + -0.20628)/2.0
 sum -  nocc_ = 0.00018642
 On Iteration in Bisection 11
 a: 0.00019  b:-0.00256

 -0.20702 = (-0.20727 + -0.20678)/2.0
 sum -  nocc_ = -0.00118551
 On Iteration in Bisection 12
 a: -0.00119  b:-0.00256

 -0.20690 = (-0.20702 + -0.20678)/2.0
 sum -  nocc_ = -0.00049954
 On Iteration in Bisection 13
 a: -0.00050  b:-0.00119

 -0.20684 = (-0.20690 + -0.20678)/2.0
 sum -  nocc_ = -0.00015656
 On Iteration in Bisection 14
 a: -0.00016  b:-0.00050

 -0.20681 = (-0.20684 + -0.20678)/2.0
 sum -  nocc_ = 0.00001493
 On Iteration in Bisection 15
 a: 0.00001  b:-0.00016

 -0.20682 = (-0.20684 + -0.20681)/2.0
 sum -  nocc_ = -0.00007081
 On Iteration in Bisection 16
 a: -0.00007  b:-0.00016

 -0.20682 = (-0.20682 + -0.20681)/2.0
 sum -  nocc_ = -0.00002794
 On Iteration in Bisection 17
 a: -0.00003  b:-0.00007

 -0.20681 = (-0.20682 + -0.20681)/2.0
 sum -  nocc_ = -0.00000650
 On Iteration in Bisection 18
 a: -0.00001  b:-0.00003

 -0.20681 = (-0.20681 + -0.20681)/2.0
 sum -  nocc_ = 0.00000421
 On Iteration in Bisection 19
 a: 0.00000  b:-0.00001

 -0.20681 = (-0.20681 + -0.20681)/2.0
 sum -  nocc_ = -0.00000115
 On Iteration in Bisection 20
 a: -0.00000  b:-0.00001

 -0.20681 = (-0.20681 + -0.20681)/2.0
 sum -  nocc_ = 0.00000153
 On Iteration in Bisection 21
 a: 0.00000  b:-0.00000

 -0.20681 = (-0.20681 + -0.20681)/2.0
 sum -  nocc_ = 0.00000019
 On Iteration in Bisection 22
 a: 0.00000  b:-0.00000

 -0.20681 = (-0.20681 + -0.20681)/2.0
 sum -  nocc_ = -0.00000048
 On Iteration in Bisection 23
 a: -0.00000  b:-0.00000

 -0.20681 = (-0.20681 + -0.20681)/2.0
 sum -  nocc_ = -0.00000014
 On Iteration in Bisection 24
 a: -0.00000  b:-0.00000

 -0.20681 = (-0.20681 + -0.20681)/2.0
 sum -  nocc_ = 0.00000003
 On Iteration in Bisection 25
 a: 0.00000  b:-0.00000

 -0.20681 = (-0.20681 + -0.20681)/2.0
 sum -  nocc_ = -0.00000006
 On Iteration in Bisection 26
 a: -0.00000  b:-0.00000

 -0.20681 = (-0.20681 + -0.20681)/2.0
 sum -  nocc_ = -0.00000001
 On Iteration in Bisection 27
 a: -0.00000  b:-0.00000

 -0.20681 = (-0.20681 + -0.20681)/2.0
 sum -  nocc_ = 0.00000001
 ef = -0.20681 sum = 1.00000 

 Iter: 2  T:    20000.000  val:-0.206810  sumni 0.00000
 ne = 1.0000

 iter:3  failiter:3  energy:     -0.951253977594  total:     -0.747724281982  error:      0.016458491805
 In Bisection function HOMO = -0.285  LUMO =  1.664

 0.68922 = (-0.28508 + 1.66351)/2.0
 sum -  nocc_ = 2.14564869
 On Iteration in Bisection 0
 a: 2.14565  b:-0.40775

 0.20207 = (-0.28508 + 0.68922)/2.0
 sum -  nocc_ = 1.00116131
 On Iteration in Bisection 1
 a: 1.00116  b:-0.40775

 -0.04151 = (-0.28508 + 0.20207)/2.0
 sum -  nocc_ = 0.80548883
 On Iteration in Bisection 2
 a: 0.80549  b:-0.40775

 -0.16329 = (-0.28508 + -0.04151)/2.0
 sum -  nocc_ = 0.28260037
 On Iteration in Bisection 3
 a: 0.28260  b:-0.40775

 -0.22419 = (-0.28508 + -0.16329)/2.0
 sum -  nocc_ = -0.06658414
 On Iteration in Bisection 4
 a: -0.06658  b:-0.40775

 -0.19374 = (-0.22419 + -0.16329)/2.0
 sum -  nocc_ = 0.10945257
 On Iteration in Bisection 5
 a: 0.10945  b:-0.06658

 -0.20896 = (-0.22419 + -0.19374)/2.0
 sum -  nocc_ = 0.02149742
 On Iteration in Bisection 6
 a: 0.02150  b:-0.06658

 -0.21657 = (-0.22419 + -0.20896)/2.0
 sum -  nocc_ = -0.02255982
 On Iteration in Bisection 7
 a: -0.02256  b:-0.06658

 -0.21277 = (-0.21657 + -0.20896)/2.0
 sum -  nocc_ = -0.00053132
 On Iteration in Bisection 8
 a: -0.00053  b:-0.02256

 -0.21086 = (-0.21277 + -0.20896)/2.0
 sum -  nocc_ = 0.01048352
 On Iteration in Bisection 9
 a: 0.01048  b:-0.00053

 -0.21182 = (-0.21277 + -0.21086)/2.0
 sum -  nocc_ = 0.00497616
 On Iteration in Bisection 10
 a: 0.00498  b:-0.00053

 -0.21229 = (-0.21277 + -0.21182)/2.0
 sum -  nocc_ = 0.00222243
 On Iteration in Bisection 11
 a: 0.00222  b:-0.00053

 -0.21253 = (-0.21277 + -0.21229)/2.0
 sum -  nocc_ = 0.00084556
 On Iteration in Bisection 12
 a: 0.00085  b:-0.00053

 -0.21265 = (-0.21277 + -0.21253)/2.0
 sum -  nocc_ = 0.00015712
 On Iteration in Bisection 13
 a: 0.00016  b:-0.00053

 -0.21271 = (-0.21277 + -0.21265)/2.0
 sum -  nocc_ = -0.00018710
 On Iteration in Bisection 14
 a: -0.00019  b:-0.00053

 -0.21268 = (-0.21271 + -0.21265)/2.0
 sum -  nocc_ = -0.00001499
 On Iteration in Bisection 15
 a: -0.00001  b:-0.00019

 -0.21266 = (-0.21268 + -0.21265)/2.0
 sum -  nocc_ = 0.00007107
 On Iteration in Bisection 16
 a: 0.00007  b:-0.00001

 -0.21267 = (-0.21268 + -0.21266)/2.0
 sum -  nocc_ = 0.00002804
 On Iteration in Bisection 17
 a: 0.00003  b:-0.00001

 -0.21267 = (-0.21268 + -0.21267)/2.0
 sum -  nocc_ = 0.00000652
 On Iteration in Bisection 18
 a: 0.00001  b:-0.00001

 -0.21268 = (-0.21268 + -0.21267)/2.0
 sum -  nocc_ = -0.00000423
 On Iteration in Bisection 19
 a: -0.00000  b:-0.00001

 -0.21268 = (-0.21268 + -0.21267)/2.0
 sum -  nocc_ = 0.00000115
 On Iteration in Bisection 20
 a: 0.00000  b:-0.00000

 -0.21268 = (-0.21268 + -0.21268)/2.0
 sum -  nocc_ = -0.00000154
 On Iteration in Bisection 21
 a: -0.00000  b:-0.00000

 -0.21268 = (-0.21268 + -0.21268)/2.0
 sum -  nocc_ = -0.00000020
 On Iteration in Bisection 22
 a: -0.00000  b:-0.00000

 -0.21268 = (-0.21268 + -0.21268)/2.0
 sum -  nocc_ = 0.00000047
 On Iteration in Bisection 23
 a: 0.00000  b:-0.00000

 -0.21268 = (-0.21268 + -0.21268)/2.0
 sum -  nocc_ = 0.00000014
 On Iteration in Bisection 24
 a: 0.00000  b:-0.00000

 -0.21268 = (-0.21268 + -0.21268)/2.0
 sum -  nocc_ = -0.00000003
 On Iteration in Bisection 25
 a: -0.00000  b:-0.00000

 -0.21268 = (-0.21268 + -0.21268)/2.0
 sum -  nocc_ = 0.00000005
 On Iteration in Bisection 26
 a: 0.00000  b:-0.00000

 -0.21268 = (-0.21268 + -0.21268)/2.0
 sum -  nocc_ = 0.00000001
 On Iteration in Bisection 27
 a: 0.00000  b:-0.00000

 -0.21268 = (-0.21268 + -0.21268)/2.0
 sum -  nocc_ = -0.00000001
 ef = -0.21268 sum = 1.00000 

 Iter: 3  T:    20000.000  val:-0.212676  sumni 0.00000
 ne = 1.0000

 iter:4  failiter:4  energy:     -0.952759655502  total:     -0.749229959891  error:     -0.001505677909
 In Bisection function HOMO = -0.289  LUMO =  1.603

 0.65713 = (-0.28923 + 1.60348)/2.0
 sum -  nocc_ = 2.05843732
 On Iteration in Bisection 0
 a: 2.05844  b:-0.41250

 0.18395 = (-0.28923 + 0.65713)/2.0
 sum -  nocc_ = 0.99631300
 On Iteration in Bisection 1
 a: 0.99631  b:-0.41250

 -0.05264 = (-0.28923 + 0.18395)/2.0
 sum -  nocc_ = 0.77752529
 On Iteration in Bisection 2
 a: 0.77753  b:-0.41250

 -0.17094 = (-0.28923 + -0.05264)/2.0
 sum -  nocc_ = 0.24923013
 On Iteration in Bisection 3
 a: 0.24923  b:-0.41250

 -0.23008 = (-0.28923 + -0.17094)/2.0
 sum -  nocc_ = -0.08600273
 On Iteration in Bisection 4
 a: -0.08600  b:-0.41250

 -0.20051 = (-0.23008 + -0.17094)/2.0
 sum -  nocc_ = 0.08247474
 On Iteration in Bisection 5
 a: 0.08247  b:-0.08600

 -0.21530 = (-0.23008 + -0.20051)/2.0
 sum -  nocc_ = -0.00176827
 On Iteration in Bisection 6
 a: -0.00177  b:-0.08600

 -0.20790 = (-0.21530 + -0.20051)/2.0
 sum -  nocc_ = 0.04037653
 On Iteration in Bisection 7
 a: 0.04038  b:-0.00177

 -0.21160 = (-0.21530 + -0.20790)/2.0
 sum -  nocc_ = 0.01930687
 On Iteration in Bisection 8
 a: 0.01931  b:-0.00177

 -0.21345 = (-0.21530 + -0.21160)/2.0
 sum -  nocc_ = 0.00876961
 On Iteration in Bisection 9
 a: 0.00877  b:-0.00177

 -0.21437 = (-0.21530 + -0.21345)/2.0
 sum -  nocc_ = 0.00350070
 On Iteration in Bisection 10
 a: 0.00350  b:-0.00177

 -0.21483 = (-0.21530 + -0.21437)/2.0
 sum -  nocc_ = 0.00086622
 On Iteration in Bisection 11
 a: 0.00087  b:-0.00177

 -0.21506 = (-0.21530 + -0.21483)/2.0
 sum -  nocc_ = -0.00045102
 On Iteration in Bisection 12
 a: -0.00045  b:-0.00177

 -0.21495 = (-0.21506 + -0.21483)/2.0
 sum -  nocc_ = 0.00020760
 On Iteration in Bisection 13
 a: 0.00021  b:-0.00045

 -0.21501 = (-0.21506 + -0.21495)/2.0
 sum -  nocc_ = -0.00012171
 On Iteration in Bisection 14
 a: -0.00012  b:-0.00045

 -0.21498 = (-0.21501 + -0.21495)/2.0
 sum -  nocc_ = 0.00004294
 On Iteration in Bisection 15
 a: 0.00004  b:-0.00012

 -0.21499 = (-0.21501 + -0.21498)/2.0
 sum -  nocc_ = -0.00003938
 On Iteration in Bisection 16
 a: -0.00004  b:-0.00012

 -0.21499 = (-0.21499 + -0.21498)/2.0
 sum -  nocc_ = 0.00000178
 On Iteration in Bisection 17
 a: 0.00000  b:-0.00004

 -0.21499 = (-0.21499 + -0.21499)/2.0
 sum -  nocc_ = -0.00001880
 On Iteration in Bisection 18
 a: -0.00002  b:-0.00004

 -0.21499 = (-0.21499 + -0.21499)/2.0
 sum -  nocc_ = -0.00000851
 On Iteration in Bisection 19
 a: -0.00001  b:-0.00002

 -0.21499 = (-0.21499 + -0.21499)/2.0
 sum -  nocc_ = -0.00000337
 On Iteration in Bisection 20
 a: -0.00000  b:-0.00001

 -0.21499 = (-0.21499 + -0.21499)/2.0
 sum -  nocc_ = -0.00000079
 On Iteration in Bisection 21
 a: -0.00000  b:-0.00000

 -0.21499 = (-0.21499 + -0.21499)/2.0
 sum -  nocc_ = 0.00000049
 On Iteration in Bisection 22
 a: 0.00000  b:-0.00000

 -0.21499 = (-0.21499 + -0.21499)/2.0
 sum -  nocc_ = -0.00000015
 On Iteration in Bisection 23
 a: -0.00000  b:-0.00000

 -0.21499 = (-0.21499 + -0.21499)/2.0
 sum -  nocc_ = 0.00000017
 On Iteration in Bisection 24
 a: 0.00000  b:-0.00000

 -0.21499 = (-0.21499 + -0.21499)/2.0
 sum -  nocc_ = 0.00000001
 On Iteration in Bisection 25
 a: 0.00000  b:-0.00000

 -0.21499 = (-0.21499 + -0.21499)/2.0
 sum -  nocc_ = -0.00000007
 On Iteration in Bisection 26
 a: -0.00000  b:-0.00000

 -0.21499 = (-0.21499 + -0.21499)/2.0
 sum -  nocc_ = -0.00000003
 On Iteration in Bisection 27
 a: -0.00000  b:-0.00000

 -0.21499 = (-0.21499 + -0.21499)/2.0
 sum -  nocc_ = -0.00000001
 ef = -0.21499 sum = 1.00000 

 Iter: 4  T:    20000.000  val:-0.214986  sumni 0.00000
 ne = 1.0000

 iter:5  failiter:5  energy:     -0.957664128520  total:     -0.754134432909  error:     -0.004904473018
 In Bisection function HOMO = -0.294  LUMO =  1.563

 0.63452 = (-0.29394 + 1.56297)/2.0
 sum -  nocc_ = 1.93693742
 On Iteration in Bisection 0
 a: 1.93694  b:-0.42083

 0.17029 = (-0.29394 + 0.63452)/2.0
 sum -  nocc_ = 0.99343817
 On Iteration in Bisection 1
 a: 0.99344  b:-0.42083

 -0.06183 = (-0.29394 + 0.17029)/2.0
 sum -  nocc_ = 0.74559869
 On Iteration in Bisection 2
 a: 0.74560  b:-0.42083

 -0.17788 = (-0.29394 + -0.06183)/2.0
 sum -  nocc_ = 0.21156412
 On Iteration in Bisection 3
 a: 0.21156  b:-0.42083

 -0.23591 = (-0.29394 + -0.17788)/2.0
 sum -  nocc_ = -0.10882049
 On Iteration in Bisection 4
 a: -0.10882  b:-0.42083

 -0.20690 = (-0.23591 + -0.17788)/2.0
 sum -  nocc_ = 0.05171531
 On Iteration in Bisection 5
 a: 0.05172  b:-0.10882

 -0.22141 = (-0.23591 + -0.20690)/2.0
 sum -  nocc_ = -0.02859397
 On Iteration in Bisection 6
 a: -0.02859  b:-0.10882

 -0.21415 = (-0.22141 + -0.20690)/2.0
 sum -  nocc_ = 0.01156464
 On Iteration in Bisection 7
 a: 0.01156  b:-0.02859

 -0.21778 = (-0.22141 + -0.21415)/2.0
 sum -  nocc_ = -0.00851540
 On Iteration in Bisection 8
 a: -0.00852  b:-0.02859

 -0.21597 = (-0.21778 + -0.21415)/2.0
 sum -  nocc_ = 0.00152465
 On Iteration in Bisection 9
 a: 0.00152  b:-0.00852

 -0.21687 = (-0.21778 + -0.21597)/2.0
 sum -  nocc_ = -0.00349539
 On Iteration in Bisection 10
 a: -0.00350  b:-0.00852

 -0.21642 = (-0.21687 + -0.21597)/2.0
 sum -  nocc_ = -0.00098537
 On Iteration in Bisection 11
 a: -0.00099  b:-0.00350

 -0.21619 = (-0.21642 + -0.21597)/2.0
 sum -  nocc_ = 0.00026964
 On Iteration in Bisection 12
 a: 0.00027  b:-0.00099

 -0.21631 = (-0.21642 + -0.21619)/2.0
 sum -  nocc_ = -0.00035787
 On Iteration in Bisection 13
 a: -0.00036  b:-0.00099

 -0.21625 = (-0.21631 + -0.21619)/2.0
 sum -  nocc_ = -0.00004411
 On Iteration in Bisection 14
 a: -0.00004  b:-0.00036

 -0.21622 = (-0.21625 + -0.21619)/2.0
 sum -  nocc_ = 0.00011276
 On Iteration in Bisection 15
 a: 0.00011  b:-0.00004

 -0.21623 = (-0.21625 + -0.21622)/2.0
 sum -  nocc_ = 0.00003432
 On Iteration in Bisection 16
 a: 0.00003  b:-0.00004

 -0.21624 = (-0.21625 + -0.21623)/2.0
 sum -  nocc_ = -0.00000490
 On Iteration in Bisection 17
 a: -0.00000  b:-0.00004

 -0.21624 = (-0.21624 + -0.21623)/2.0
 sum -  nocc_ = 0.00001471
 On Iteration in Bisection 18
 a: 0.00001  b:-0.00000

 -0.21624 = (-0.21624 + -0.21624)/2.0
 sum -  nocc_ = 0.00000491
 On Iteration in Bisection 19
 a: 0.00000  b:-0.00000

 -0.21624 = (-0.21624 + -0.21624)/2.0
 sum -  nocc_ = 0.00000001
 ef = -0.21624 sum = 1.00000 

 Iter: 5  T:    20000.000  val:-0.216240  sumni 0.00000
 ne = 1.0000

 iter:6  failiter:6  energy:     -0.962917281081  total:     -0.759387585469  error:     -0.005253152561
 In Bisection function HOMO = -0.297  LUMO =  1.537

 0.61974 = (-0.29749 + 1.53697)/2.0
 sum -  nocc_ = 1.83291857
 On Iteration in Bisection 0
 a: 1.83292  b:-0.42739

 0.16112 = (-0.29749 + 0.61974)/2.0
 sum -  nocc_ = 0.99144700
 On Iteration in Bisection 1
 a: 0.99145  b:-0.42739

 -0.06818 = (-0.29749 + 0.16112)/2.0
 sum -  nocc_ = 0.71922376
 On Iteration in Bisection 2
 a: 0.71922  b:-0.42739

 -0.18284 = (-0.29749 + -0.06818)/2.0
 sum -  nocc_ = 0.18309731
 On Iteration in Bisection 3
 a: 0.18310  b:-0.42739

 -0.24017 = (-0.29749 + -0.18284)/2.0
 sum -  nocc_ = -0.12579979
 On Iteration in Bisection 4
 a: -0.12580  b:-0.42739

 -0.21150 = (-0.24017 + -0.18284)/2.0
 sum -  nocc_ = 0.02875421
 On Iteration in Bisection 5
 a: 0.02875  b:-0.12580

 -0.22583 = (-0.24017 + -0.21150)/2.0
 sum -  nocc_ = -0.04855978
 On Iteration in Bisection 6
 a: -0.04856  b:-0.12580

 -0.21867 = (-0.22583 + -0.21150)/2.0
 sum -  nocc_ = -0.00990444
 On Iteration in Bisection 7
 a: -0.00990  b:-0.04856

 -0.21509 = (-0.21867 + -0.21150)/2.0
 sum -  nocc_ = 0.00942526
 On Iteration in Bisection 8
 a: 0.00943  b:-0.00990

 -0.21688 = (-0.21867 + -0.21509)/2.0
 sum -  nocc_ = -0.00023959
 On Iteration in Bisection 9
 a: -0.00024  b:-0.00990

 -0.21598 = (-0.21688 + -0.21509)/2.0
 sum -  nocc_ = 0.00459284
 On Iteration in Bisection 10
 a: 0.00459  b:-0.00024

 -0.21643 = (-0.21688 + -0.21598)/2.0
 sum -  nocc_ = 0.00217663
 On Iteration in Bisection 11
 a: 0.00218  b:-0.00024

 -0.21665 = (-0.21688 + -0.21643)/2.0
 sum -  nocc_ = 0.00096852
 On Iteration in Bisection 12
 a: 0.00097  b:-0.00024

 -0.21676 = (-0.21688 + -0.21665)/2.0
 sum -  nocc_ = 0.00036446
 On Iteration in Bisection 13
 a: 0.00036  b:-0.00024

 -0.21682 = (-0.21688 + -0.21676)/2.0
 sum -  nocc_ = 0.00006243
 On Iteration in Bisection 14
 a: 0.00006  b:-0.00024

 -0.21685 = (-0.21688 + -0.21682)/2.0
 sum -  nocc_ = -0.00008858
 On Iteration in Bisection 15
 a: -0.00009  b:-0.00024

 -0.21683 = (-0.21685 + -0.21682)/2.0
 sum -  nocc_ = -0.00001307
 On Iteration in Bisection 16
 a: -0.00001  b:-0.00009

 -0.21683 = (-0.21683 + -0.21682)/2.0
 sum -  nocc_ = 0.00002468
 On Iteration in Bisection 17
 a: 0.00002  b:-0.00001

 -0.21683 = (-0.21683 + -0.21683)/2.0
 sum -  nocc_ = 0.00000580
 On Iteration in Bisection 18
 a: 0.00001  b:-0.00001

 -0.21683 = (-0.21683 + -0.21683)/2.0
 sum -  nocc_ = -0.00000364
 On Iteration in Bisection 19
 a: -0.00000  b:-0.00001

 -0.21683 = (-0.21683 + -0.21683)/2.0
 sum -  nocc_ = 0.00000108
 On Iteration in Bisection 20
 a: 0.00000  b:-0.00000

 -0.21683 = (-0.21683 + -0.21683)/2.0
 sum -  nocc_ = -0.00000128
 On Iteration in Bisection 21
 a: -0.00000  b:-0.00000

 -0.21683 = (-0.21683 + -0.21683)/2.0
 sum -  nocc_ = -0.00000010
 On Iteration in Bisection 22
 a: -0.00000  b:-0.00000

 -0.21683 = (-0.21683 + -0.21683)/2.0
 sum -  nocc_ = 0.00000049
 On Iteration in Bisection 23
 a: 0.00000  b:-0.00000

 -0.21683 = (-0.21683 + -0.21683)/2.0
 sum -  nocc_ = 0.00000020
 On Iteration in Bisection 24
 a: 0.00000  b:-0.00000

 -0.21683 = (-0.21683 + -0.21683)/2.0
 sum -  nocc_ = 0.00000005
 On Iteration in Bisection 25
 a: 0.00000  b:-0.00000

 -0.21683 = (-0.21683 + -0.21683)/2.0
 sum -  nocc_ = -0.00000002
 On Iteration in Bisection 26
 a: -0.00000  b:-0.00000

 -0.21683 = (-0.21683 + -0.21683)/2.0
 sum -  nocc_ = 0.00000001
 On Iteration in Bisection 27
 a: 0.00000  b:-0.00000

 -0.21683 = (-0.21683 + -0.21683)/2.0
 sum -  nocc_ = -0.00000000
 ef = -0.21683 sum = 1.00000 

 Iter: 6  T:    20000.000  val:-0.216832  sumni 0.00000
 ne = 1.0000

 iter:7  failiter:7  energy:     -0.966890423322  total:     -0.763360727710  error:     -0.003973142241
 In Bisection function HOMO = -0.300  LUMO =  1.522

 0.61089 = (-0.29977 + 1.52154)/2.0
 sum -  nocc_ = 1.76587323
 On Iteration in Bisection 0
 a: 1.76587  b:-0.43154

 0.15556 = (-0.29977 + 0.61089)/2.0
 sum -  nocc_ = 0.99013151
 On Iteration in Bisection 1
 a: 0.99013  b:-0.43154

 -0.07211 = (-0.29977 + 0.15556)/2.0
 sum -  nocc_ = 0.70122987
 On Iteration in Bisection 2
 a: 0.70123  b:-0.43154

 -0.18594 = (-0.29977 + -0.07211)/2.0
 sum -  nocc_ = 0.16504169
 On Iteration in Bisection 3
 a: 0.16504  b:-0.43154

 -0.24285 = (-0.29977 + -0.18594)/2.0
 sum -  nocc_ = -0.13639991
 On Iteration in Bisection 4
 a: -0.13640  b:-0.43154

 -0.21440 = (-0.24285 + -0.18594)/2.0
 sum -  nocc_ = 0.01434603
 On Iteration in Bisection 5
 a: 0.01435  b:-0.13640

 -0.22863 = (-0.24285 + -0.21440)/2.0
 sum -  nocc_ = -0.06104700
 On Iteration in Bisection 6
 a: -0.06105  b:-0.13640

 -0.22151 = (-0.22863 + -0.21440)/2.0
 sum -  nocc_ = -0.02335168
 On Iteration in Bisection 7
 a: -0.02335  b:-0.06105

 -0.21795 = (-0.22151 + -0.21440)/2.0
 sum -  nocc_ = -0.00450288
 On Iteration in Bisection 8
 a: -0.00450  b:-0.02335

 -0.21617 = (-0.21795 + -0.21440)/2.0
 sum -  nocc_ = 0.00492159
 On Iteration in Bisection 9
 a: 0.00492  b:-0.00450

 -0.21706 = (-0.21795 + -0.21617)/2.0
 sum -  nocc_ = 0.00020935
 On Iteration in Bisection 10
 a: 0.00021  b:-0.00450

 -0.21751 = (-0.21795 + -0.21706)/2.0
 sum -  nocc_ = -0.00214676
 On Iteration in Bisection 11
 a: -0.00215  b:-0.00450

 -0.21729 = (-0.21751 + -0.21706)/2.0
 sum -  nocc_ = -0.00096870
 On Iteration in Bisection 12
 a: -0.00097  b:-0.00215

 -0.21718 = (-0.21729 + -0.21706)/2.0
 sum -  nocc_ = -0.00037968
 On Iteration in Bisection 13
 a: -0.00038  b:-0.00097

 -0.21712 = (-0.21718 + -0.21706)/2.0
 sum -  nocc_ = -0.00008516
 On Iteration in Bisection 14
 a: -0.00009  b:-0.00038

 -0.21709 = (-0.21712 + -0.21706)/2.0
 sum -  nocc_ = 0.00006210
 On Iteration in Bisection 15
 a: 0.00006  b:-0.00009

 -0.21711 = (-0.21712 + -0.21709)/2.0
 sum -  nocc_ = -0.00001153
 On Iteration in Bisection 16
 a: -0.00001  b:-0.00009

 -0.21710 = (-0.21711 + -0.21709)/2.0
 sum -  nocc_ = 0.00002528
 On Iteration in Bisection 17
 a: 0.00003  b:-0.00001

 -0.21710 = (-0.21711 + -0.21710)/2.0
 sum -  nocc_ = 0.00000688
 On Iteration in Bisection 18
 a: 0.00001  b:-0.00001

 -0.21710 = (-0.21711 + -0.21710)/2.0
 sum -  nocc_ = -0.00000233
 On Iteration in Bisection 19
 a: -0.00000  b:-0.00001

 -0.21710 = (-0.21710 + -0.21710)/2.0
 sum -  nocc_ = 0.00000227
 On Iteration in Bisection 20
 a: 0.00000  b:-0.00000

 -0.21710 = (-0.21710 + -0.21710)/2.0
 sum -  nocc_ = -0.00000003
 On Iteration in Bisection 21
 a: -0.00000  b:-0.00000

 -0.21710 = (-0.21710 + -0.21710)/2.0
 sum -  nocc_ = 0.00000112
 On Iteration in Bisection 22
 a: 0.00000  b:-0.00000

 -0.21710 = (-0.21710 + -0.21710)/2.0
 sum -  nocc_ = 0.00000055
 On Iteration in Bisection 23
 a: 0.00000  b:-0.00000

 -0.21710 = (-0.21710 + -0.21710)/2.0
 sum -  nocc_ = 0.00000026
 On Iteration in Bisection 24
 a: 0.00000  b:-0.00000

 -0.21710 = (-0.21710 + -0.21710)/2.0
 sum -  nocc_ = 0.00000012
 On Iteration in Bisection 25
 a: 0.00000  b:-0.00000

 -0.21710 = (-0.21710 + -0.21710)/2.0
 sum -  nocc_ = 0.00000004
 On Iteration in Bisection 26
 a: 0.00000  b:-0.00000

 -0.21710 = (-0.21710 + -0.21710)/2.0
 sum -  nocc_ = 0.00000001
 ef = -0.21710 sum = 1.00000 

 Iter: 7  T:    20000.000  val:-0.217104  sumni 0.00000
 ne = 1.0000

 iter:8  failiter:8  energy:     -0.969464326619  total:     -0.765934631007  error:     -0.002573903297
 In Bisection function HOMO = -0.301  LUMO =  1.513

 0.60609 = (-0.30110 + 1.51328)/2.0
 sum -  nocc_ = 1.72940239
 On Iteration in Bisection 0
 a: 1.72940  b:-0.43395

 0.15249 = (-0.30110 + 0.60609)/2.0
 sum -  nocc_ = 0.98934856
 On Iteration in Bisection 1
 a: 0.98935  b:-0.43395

 -0.07431 = (-0.30110 + 0.15249)/2.0
 sum -  nocc_ = 0.69043937
 On Iteration in Bisection 2
 a: 0.69044  b:-0.43395

 -0.18771 = (-0.30110 + -0.07431)/2.0
 sum -  nocc_ = 0.15466719
 On Iteration in Bisection 3
 a: 0.15467  b:-0.43395

 -0.24440 = (-0.30110 + -0.18771)/2.0
 sum -  nocc_ = -0.14243916
 On Iteration in Bisection 4
 a: -0.14244  b:-0.43395

 -0.21606 = (-0.24440 + -0.18771)/2.0
 sum -  nocc_ = 0.00611775
 On Iteration in Bisection 5
 a: 0.00612  b:-0.14244

 -0.23023 = (-0.24440 + -0.21606)/2.0
 sum -  nocc_ = -0.06816596
 On Iteration in Bisection 6
 a: -0.06817  b:-0.14244

 -0.22314 = (-0.23023 + -0.21606)/2.0
 sum -  nocc_ = -0.03102360
 On Iteration in Bisection 7
 a: -0.03102  b:-0.06817

 -0.21960 = (-0.22314 + -0.21606)/2.0
 sum -  nocc_ = -0.01245285
 On Iteration in Bisection 8
 a: -0.01245  b:-0.03102

 -0.21783 = (-0.21960 + -0.21606)/2.0
 sum -  nocc_ = -0.00316755
 On Iteration in Bisection 9
 a: -0.00317  b:-0.01245

 -0.21694 = (-0.21783 + -0.21606)/2.0
 sum -  nocc_ = 0.00147510
 On Iteration in Bisection 10
 a: 0.00148  b:-0.00317

 -0.21738 = (-0.21783 + -0.21694)/2.0
 sum -  nocc_ = -0.00084622
 On Iteration in Bisection 11
 a: -0.00085  b:-0.00317

 -0.21716 = (-0.21738 + -0.21694)/2.0
 sum -  nocc_ = 0.00031444
 On Iteration in Bisection 12
 a: 0.00031  b:-0.00085

 -0.21727 = (-0.21738 + -0.21716)/2.0
 sum -  nocc_ = -0.00026589
 On Iteration in Bisection 13
 a: -0.00027  b:-0.00085

 -0.21722 = (-0.21727 + -0.21716)/2.0
 sum -  nocc_ = 0.00002428
 On Iteration in Bisection 14
 a: 0.00002  b:-0.00027

 -0.21725 = (-0.21727 + -0.21722)/2.0
 sum -  nocc_ = -0.00012081
 On Iteration in Bisection 15
 a: -0.00012  b:-0.00027

 -0.21723 = (-0.21725 + -0.21722)/2.0
 sum -  nocc_ = -0.00004827
 On Iteration in Bisection 16
 a: -0.00005  b:-0.00012

 -0.21722 = (-0.21723 + -0.21722)/2.0
 sum -  nocc_ = -0.00001200
 On Iteration in Bisection 17
 a: -0.00001  b:-0.00005

 -0.21722 = (-0.21722 + -0.21722)/2.0
 sum -  nocc_ = 0.00000614
 On Iteration in Bisection 18
 a: 0.00001  b:-0.00001

 -0.21722 = (-0.21722 + -0.21722)/2.0
 sum -  nocc_ = -0.00000293
 On Iteration in Bisection 19
 a: -0.00000  b:-0.00001

 -0.21722 = (-0.21722 + -0.21722)/2.0
 sum -  nocc_ = 0.00000161
 On Iteration in Bisection 20
 a: 0.00000  b:-0.00000

 -0.21722 = (-0.21722 + -0.21722)/2.0
 sum -  nocc_ = -0.00000066
 On Iteration in Bisection 21
 a: -0.00000  b:-0.00000

 -0.21722 = (-0.21722 + -0.21722)/2.0
 sum -  nocc_ = 0.00000047
 On Iteration in Bisection 22
 a: 0.00000  b:-0.00000

 -0.21722 = (-0.21722 + -0.21722)/2.0
 sum -  nocc_ = -0.00000009
 On Iteration in Bisection 23
 a: -0.00000  b:-0.00000

 -0.21722 = (-0.21722 + -0.21722)/2.0
 sum -  nocc_ = 0.00000019
 On Iteration in Bisection 24
 a: 0.00000  b:-0.00000

 -0.21722 = (-0.21722 + -0.21722)/2.0
 sum -  nocc_ = 0.00000005
 On Iteration in Bisection 25
 a: 0.00000  b:-0.00000

 -0.21722 = (-0.21722 + -0.21722)/2.0
 sum -  nocc_ = -0.00000002
 On Iteration in Bisection 26
 a: -0.00000  b:-0.00000

 -0.21722 = (-0.21722 + -0.21722)/2.0
 sum -  nocc_ = 0.00000001
 On Iteration in Bisection 27
 a: 0.00000  b:-0.00000

 -0.21722 = (-0.21722 + -0.21722)/2.0
 sum -  nocc_ = -0.00000001
 ef = -0.21722 sum = 1.00000 

 Iter: 8  T:    20000.000  val:-0.217222  sumni 0.00000
 ne = 1.0000

 iter:9  failiter:9  energy:     -0.970985264783  total:     -0.767455569171  error:     -0.001520938164
 In Bisection function HOMO = -0.302  LUMO =  1.509

 0.60375 = (-0.30185 + 1.50934)/2.0
 sum -  nocc_ = 1.71182227
 On Iteration in Bisection 0
 a: 1.71182  b:-0.43528

 0.15095 = (-0.30185 + 0.60375)/2.0
 sum -  nocc_ = 0.98892853
 On Iteration in Bisection 1
 a: 0.98893  b:-0.43528

 -0.07545 = (-0.30185 + 0.15095)/2.0
 sum -  nocc_ = 0.68453756
 On Iteration in Bisection 2
 a: 0.68454  b:-0.43528

 -0.18865 = (-0.30185 + -0.07545)/2.0
 sum -  nocc_ = 0.14908711
 On Iteration in Bisection 3
 a: 0.14909  b:-0.43528

 -0.24525 = (-0.30185 + -0.18865)/2.0
 sum -  nocc_ = -0.14568230
 On Iteration in Bisection 4
 a: -0.14568  b:-0.43528

 -0.21695 = (-0.24525 + -0.18865)/2.0
 sum -  nocc_ = 0.00170219
 On Iteration in Bisection 5
 a: 0.00170  b:-0.14568

 -0.23110 = (-0.24525 + -0.21695)/2.0
 sum -  nocc_ = -0.07198553
 On Iteration in Bisection 6
 a: -0.07199  b:-0.14568

 -0.22402 = (-0.23110 + -0.21695)/2.0
 sum -  nocc_ = -0.03513979
 On Iteration in Bisection 7
 a: -0.03514  b:-0.07199

 -0.22048 = (-0.22402 + -0.21695)/2.0
 sum -  nocc_ = -0.01671854
 On Iteration in Bisection 8
 a: -0.01672  b:-0.03514

 -0.21872 = (-0.22048 + -0.21695)/2.0
 sum -  nocc_ = -0.00750815
 On Iteration in Bisection 9
 a: -0.00751  b:-0.01672

 -0.21783 = (-0.21872 + -0.21695)/2.0
 sum -  nocc_ = -0.00290298
 On Iteration in Bisection 10
 a: -0.00290  b:-0.00751

 -0.21739 = (-0.21783 + -0.21695)/2.0
 sum -  nocc_ = -0.00060040
 On Iteration in Bisection 11
 a: -0.00060  b:-0.00290

 -0.21717 = (-0.21739 + -0.21695)/2.0
 sum -  nocc_ = 0.00055089
 On Iteration in Bisection 12
 a: 0.00055  b:-0.00060

 -0.21728 = (-0.21739 + -0.21717)/2.0
 sum -  nocc_ = -0.00002475
 On Iteration in Bisection 13
 a: -0.00002  b:-0.00060

 -0.21722 = (-0.21728 + -0.21717)/2.0
 sum -  nocc_ = 0.00026307
 On Iteration in Bisection 14
 a: 0.00026  b:-0.00002

 -0.21725 = (-0.21728 + -0.21722)/2.0
 sum -  nocc_ = 0.00011916
 On Iteration in Bisection 15
 a: 0.00012  b:-0.00002

 -0.21726 = (-0.21728 + -0.21725)/2.0
 sum -  nocc_ = 0.00004720
 On Iteration in Bisection 16
 a: 0.00005  b:-0.00002

 -0.21727 = (-0.21728 + -0.21726)/2.0
 sum -  nocc_ = 0.00001123
 On Iteration in Bisection 17
 a: 0.00001  b:-0.00002

 -0.21727 = (-0.21728 + -0.21727)/2.0
 sum -  nocc_ = -0.00000676
 On Iteration in Bisection 18
 a: -0.00001  b:-0.00002

 -0.21727 = (-0.21727 + -0.21727)/2.0
 sum -  nocc_ = 0.00000223
 On Iteration in Bisection 19
 a: 0.00000  b:-0.00001

 -0.21727 = (-0.21727 + -0.21727)/2.0
 sum -  nocc_ = -0.00000226
 On Iteration in Bisection 20
 a: -0.00000  b:-0.00001

 -0.21727 = (-0.21727 + -0.21727)/2.0
 sum -  nocc_ = -0.00000002
 On Iteration in Bisection 21
 a: -0.00000  b:-0.00000

 -0.21727 = (-0.21727 + -0.21727)/2.0
 sum -  nocc_ = 0.00000111
 On Iteration in Bisection 22
 a: 0.00000  b:-0.00000

 -0.21727 = (-0.21727 + -0.21727)/2.0
 sum -  nocc_ = 0.00000055
 On Iteration in Bisection 23
 a: 0.00000  b:-0.00000

 -0.21727 = (-0.21727 + -0.21727)/2.0
 sum -  nocc_ = 0.00000026
 On Iteration in Bisection 24
 a: 0.00000  b:-0.00000

 -0.21727 = (-0.21727 + -0.21727)/2.0
 sum -  nocc_ = 0.00000012
 On Iteration in Bisection 25
 a: 0.00000  b:-0.00000

 -0.21727 = (-0.21727 + -0.21727)/2.0
 sum -  nocc_ = 0.00000005
 On Iteration in Bisection 26
 a: 0.00000  b:-0.00000

 -0.21727 = (-0.21727 + -0.21727)/2.0
 sum -  nocc_ = 0.00000002
 On Iteration in Bisection 27
 a: 0.00000  b:-0.00000

 -0.21727 = (-0.21727 + -0.21727)/2.0
 sum -  nocc_ = 0.00000000
 ef = -0.21727 sum = 1.00000 

 Iter: 9  T:    20000.000  val:-0.217273  sumni 0.00000
 ne = 1.0000

 iter:10  failiter:10  energy:     -0.971836276993  total:     -0.768306581381  error:     -0.000851012210
 In Bisection function HOMO = -0.302  LUMO =  1.508

 0.60270 = (-0.30225 + 1.50765)/2.0
 sum -  nocc_ = 1.70402117
 On Iteration in Bisection 0
 a: 1.70402  b:-0.43600

 0.15023 = (-0.30225 + 0.60270)/2.0
 sum -  nocc_ = 0.98871873
 On Iteration in Bisection 1
 a: 0.98872  b:-0.43600

 -0.07601 = (-0.30225 + 0.15023)/2.0
 sum -  nocc_ = 0.68148641
 On Iteration in Bisection 2
 a: 0.68149  b:-0.43600

 -0.18913 = (-0.30225 + -0.07601)/2.0
 sum -  nocc_ = 0.14620243
 On Iteration in Bisection 3
 a: 0.14620  b:-0.43600

 -0.24569 = (-0.30225 + -0.18913)/2.0
 sum -  nocc_ = -0.14736343
 On Iteration in Bisection 4
 a: -0.14736  b:-0.43600

 -0.21741 = (-0.24569 + -0.18913)/2.0
 sum -  nocc_ = -0.00058060
 On Iteration in Bisection 5
 a: -0.00058  b:-0.14736

 -0.20327 = (-0.21741 + -0.18913)/2.0
 sum -  nocc_ = 0.07280034
 On Iteration in Bisection 6
 a: 0.07280  b:-0.00058

 -0.21034 = (-0.21741 + -0.20327)/2.0
 sum -  nocc_ = 0.03610715
 On Iteration in Bisection 7
 a: 0.03611  b:-0.00058

 -0.21387 = (-0.21741 + -0.21034)/2.0
 sum -  nocc_ = 0.01776289
 On Iteration in Bisection 8
 a: 0.01776  b:-0.00058

 -0.21564 = (-0.21741 + -0.21387)/2.0
 sum -  nocc_ = 0.00859110
 On Iteration in Bisection 9
 a: 0.00859  b:-0.00058

 -0.21652 = (-0.21741 + -0.21564)/2.0
 sum -  nocc_ = 0.00400524
 On Iteration in Bisection 10
 a: 0.00401  b:-0.00058

 -0.21696 = (-0.21741 + -0.21652)/2.0
 sum -  nocc_ = 0.00171232
 On Iteration in Bisection 11
 a: 0.00171  b:-0.00058

 -0.21719 = (-0.21741 + -0.21696)/2.0
 sum -  nocc_ = 0.00056586
 On Iteration in Bisection 12
 a: 0.00057  b:-0.00058

 -0.21730 = (-0.21741 + -0.21719)/2.0
 sum -  nocc_ = -0.00000737
 On Iteration in Bisection 13
 a: -0.00001  b:-0.00058

 -0.21724 = (-0.21730 + -0.21719)/2.0
 sum -  nocc_ = 0.00027924
 On Iteration in Bisection 14
 a: 0.00028  b:-0.00001

 -0.21727 = (-0.21730 + -0.21724)/2.0
 sum -  nocc_ = 0.00013593
 On Iteration in Bisection 15
 a: 0.00014  b:-0.00001

 -0.21728 = (-0.21730 + -0.21727)/2.0
 sum -  nocc_ = 0.00006428
 On Iteration in Bisection 16
 a: 0.00006  b:-0.00001

 -0.21729 = (-0.21730 + -0.21728)/2.0
 sum -  nocc_ = 0.00002845
 On Iteration in Bisection 17
 a: 0.00003  b:-0.00001

 -0.21729 = (-0.21730 + -0.21729)/2.0
 sum -  nocc_ = 0.00001054
 On Iteration in Bisection 18
 a: 0.00001  b:-0.00001

 -0.21729 = (-0.21730 + -0.21729)/2.0
 sum -  nocc_ = 0.00000158
 On Iteration in Bisection 19
 a: 0.00000  b:-0.00001

 -0.21730 = (-0.21730 + -0.21729)/2.0
 sum -  nocc_ = -0.00000290
 On Iteration in Bisection 20
 a: -0.00000  b:-0.00001

 -0.21729 = (-0.21730 + -0.21729)/2.0
 sum -  nocc_ = -0.00000066
 On Iteration in Bisection 21
 a: -0.00000  b:-0.00000

 -0.21729 = (-0.21729 + -0.21729)/2.0
 sum -  nocc_ = 0.00000046
 On Iteration in Bisection 22
 a: 0.00000  b:-0.00000

 -0.21729 = (-0.21729 + -0.21729)/2.0
 sum -  nocc_ = -0.00000010
 On Iteration in Bisection 23
 a: -0.00000  b:-0.00000

 -0.21729 = (-0.21729 + -0.21729)/2.0
 sum -  nocc_ = 0.00000018
 On Iteration in Bisection 24
 a: 0.00000  b:-0.00000

 -0.21729 = (-0.21729 + -0.21729)/2.0
 sum -  nocc_ = 0.00000004
 On Iteration in Bisection 25
 a: 0.00000  b:-0.00000

 -0.21729 = (-0.21729 + -0.21729)/2.0
 sum -  nocc_ = -0.00000003
 On Iteration in Bisection 26
 a: -0.00000  b:-0.00000

 -0.21729 = (-0.21729 + -0.21729)/2.0
 sum -  nocc_ = 0.00000001
 ef = -0.21729 sum = 1.00000 

 Iter: 10  T:    20000.000  val:-0.217295  sumni 0.00000
 ne = 1.0000

 iter:11  failiter:11  energy:     -0.972296755781  total:     -0.768767060170  error:     -0.000460478789
 In Bisection function HOMO = -0.302  LUMO =  1.507

 0.60225 = (-0.30246 + 1.50696)/2.0
 sum -  nocc_ = 1.70070285
 On Iteration in Bisection 0
 a: 1.70070  b:-0.43638

 0.14990 = (-0.30246 + 0.60225)/2.0
 sum -  nocc_ = 0.98861732
 On Iteration in Bisection 1
 a: 0.98862  b:-0.43638

 -0.07628 = (-0.30246 + 0.14990)/2.0
 sum -  nocc_ = 0.67994913
 On Iteration in Bisection 2
 a: 0.67995  b:-0.43638

 -0.18937 = (-0.30246 + -0.07628)/2.0
 sum -  nocc_ = 0.14473777
 On Iteration in Bisection 3
 a: 0.14474  b:-0.43638

 -0.24591 = (-0.30246 + -0.18937)/2.0
 sum -  nocc_ = -0.14822075
 On Iteration in Bisection 4
 a: -0.14822  b:-0.43638

 -0.21764 = (-0.24591 + -0.18937)/2.0
 sum -  nocc_ = -0.00174094
 On Iteration in Bisection 5
 a: -0.00174  b:-0.14822

 -0.20350 = (-0.21764 + -0.18937)/2.0
 sum -  nocc_ = 0.07148452
 On Iteration in Bisection 6
 a: 0.07148  b:-0.00174

 -0.21057 = (-0.21764 + -0.20350)/2.0
 sum -  nocc_ = 0.03486875
 On Iteration in Bisection 7
 a: 0.03487  b:-0.00174

 -0.21411 = (-0.21764 + -0.21057)/2.0
 sum -  nocc_ = 0.01656351
 On Iteration in Bisection 8
 a: 0.01656  b:-0.00174

 -0.21587 = (-0.21764 + -0.21411)/2.0
 sum -  nocc_ = 0.00741124
 On Iteration in Bisection 9
 a: 0.00741  b:-0.00174

 -0.21676 = (-0.21764 + -0.21587)/2.0
 sum -  nocc_ = 0.00283515
 On Iteration in Bisection 10
 a: 0.00284  b:-0.00174

 -0.21720 = (-0.21764 + -0.21676)/2.0
 sum -  nocc_ = 0.00054711
 On Iteration in Bisection 11
 a: 0.00055  b:-0.00174

 -0.21742 = (-0.21764 + -0.21720)/2.0
 sum -  nocc_ = -0.00059692
 On Iteration in Bisection 12
 a: -0.00060  b:-0.00174

 -0.21731 = (-0.21742 + -0.21720)/2.0
 sum -  nocc_ = -0.00002490
 On Iteration in Bisection 13
 a: -0.00002  b:-0.00060

 -0.21725 = (-0.21731 + -0.21720)/2.0
 sum -  nocc_ = 0.00026110
 On Iteration in Bisection 14
 a: 0.00026  b:-0.00002

 -0.21728 = (-0.21731 + -0.21725)/2.0
 sum -  nocc_ = 0.00011810
 On Iteration in Bisection 15
 a: 0.00012  b:-0.00002

 -0.21729 = (-0.21731 + -0.21728)/2.0
 sum -  nocc_ = 0.00004660
 On Iteration in Bisection 16
 a: 0.00005  b:-0.00002

 -0.21730 = (-0.21731 + -0.21729)/2.0
 sum -  nocc_ = 0.00001085
 On Iteration in Bisection 17
 a: 0.00001  b:-0.00002

 -0.21731 = (-0.21731 + -0.21730)/2.0
 sum -  nocc_ = -0.00000703
 On Iteration in Bisection 18
 a: -0.00001  b:-0.00002

 -0.21730 = (-0.21731 + -0.21730)/2.0
 sum -  nocc_ = 0.00000191
 On Iteration in Bisection 19
 a: 0.00000  b:-0.00001

 -0.21730 = (-0.21731 + -0.21730)/2.0
 sum -  nocc_ = -0.00000256
 On Iteration in Bisection 20
 a: -0.00000  b:-0.00001

 -0.21730 = (-0.21730 + -0.21730)/2.0
 sum -  nocc_ = -0.00000033
 On Iteration in Bisection 21
 a: -0.00000  b:-0.00000

 -0.21730 = (-0.21730 + -0.21730)/2.0
 sum -  nocc_ = 0.00000079
 On Iteration in Bisection 22
 a: 0.00000  b:-0.00000

 -0.21730 = (-0.21730 + -0.21730)/2.0
 sum -  nocc_ = 0.00000023
 On Iteration in Bisection 23
 a: 0.00000  b:-0.00000

 -0.21730 = (-0.21730 + -0.21730)/2.0
 sum -  nocc_ = -0.00000005
 On Iteration in Bisection 24
 a: -0.00000  b:-0.00000

 -0.21730 = (-0.21730 + -0.21730)/2.0
 sum -  nocc_ = 0.00000009
 On Iteration in Bisection 25
 a: 0.00000  b:-0.00000

 -0.21730 = (-0.21730 + -0.21730)/2.0
 sum -  nocc_ = 0.00000002
 On Iteration in Bisection 26
 a: 0.00000  b:-0.00000

 -0.21730 = (-0.21730 + -0.21730)/2.0
 sum -  nocc_ = -0.00000001
 On Iteration in Bisection 27
 a: -0.00000  b:-0.00000

 -0.21730 = (-0.21730 + -0.21730)/2.0
 sum -  nocc_ = 0.00000001
 ef = -0.21730 sum = 1.00000 

 Iter: 11  T:    20000.000  val:-0.217304  sumni 0.00000
 ne = 1.0000

 iter:12  failiter:12  energy:     -0.972540766378  total:     -0.769011070767  error:     -0.000244010597
 In Bisection function HOMO = -0.303  LUMO =  1.507

 0.60206 = (-0.30257 + 1.50669)/2.0
 sum -  nocc_ = 1.69930789
 On Iteration in Bisection 0
 a: 1.69931  b:-0.43658

 0.14975 = (-0.30257 + 0.60206)/2.0
 sum -  nocc_ = 0.98856865
 On Iteration in Bisection 1
 a: 0.98857  b:-0.43658

 -0.07641 = (-0.30257 + 0.14975)/2.0
 sum -  nocc_ = 0.67918065
 On Iteration in Bisection 2
 a: 0.67918  b:-0.43658

 -0.18949 = (-0.30257 + -0.07641)/2.0
 sum -  nocc_ = 0.14399836
 On Iteration in Bisection 3
 a: 0.14400  b:-0.43658

 -0.24603 = (-0.30257 + -0.18949)/2.0
 sum -  nocc_ = -0.14865549
 On Iteration in Bisection 4
 a: -0.14866  b:-0.43658

 -0.21776 = (-0.24603 + -0.18949)/2.0
 sum -  nocc_ = -0.00232751
 On Iteration in Bisection 5
 a: -0.00233  b:-0.14866

 -0.20362 = (-0.21776 + -0.18949)/2.0
 sum -  nocc_ = 0.07081982
 On Iteration in Bisection 6
 a: 0.07082  b:-0.00233

 -0.21069 = (-0.21776 + -0.20362)/2.0
 sum -  nocc_ = 0.03424296
 On Iteration in Bisection 7
 a: 0.03424  b:-0.00233

 -0.21422 = (-0.21776 + -0.21069)/2.0
 sum -  nocc_ = 0.01595731
 On Iteration in Bisection 8
 a: 0.01596  b:-0.00233

 -0.21599 = (-0.21776 + -0.21422)/2.0
 sum -  nocc_ = 0.00681485
 On Iteration in Bisection 9
 a: 0.00681  b:-0.00233

 -0.21687 = (-0.21776 + -0.21599)/2.0
 sum -  nocc_ = 0.00224366
 On Iteration in Bisection 10
 a: 0.00224  b:-0.00233

 -0.21732 = (-0.21776 + -0.21687)/2.0
 sum -  nocc_ = -0.00004193
 On Iteration in Bisection 11
 a: -0.00004  b:-0.00233

 -0.21710 = (-0.21732 + -0.21687)/2.0
 sum -  nocc_ = 0.00110087
 On Iteration in Bisection 12
 a: 0.00110  b:-0.00004

 -0.21721 = (-0.21732 + -0.21710)/2.0
 sum -  nocc_ = 0.00052947
 On Iteration in Bisection 13
 a: 0.00053  b:-0.00004

 -0.21726 = (-0.21732 + -0.21721)/2.0
 sum -  nocc_ = 0.00024377
 On Iteration in Bisection 14
 a: 0.00024  b:-0.00004

 -0.21729 = (-0.21732 + -0.21726)/2.0
 sum -  nocc_ = 0.00010092
 On Iteration in Bisection 15
 a: 0.00010  b:-0.00004

 -0.21730 = (-0.21732 + -0.21729)/2.0
 sum -  nocc_ = 0.00002950
 On Iteration in Bisection 16
 a: 0.00003  b:-0.00004

 -0.21731 = (-0.21732 + -0.21730)/2.0
 sum -  nocc_ = -0.00000621
 On Iteration in Bisection 17
 a: -0.00001  b:-0.00004

 -0.21731 = (-0.21731 + -0.21730)/2.0
 sum -  nocc_ = 0.00001164
 On Iteration in Bisection 18
 a: 0.00001  b:-0.00001

 -0.21731 = (-0.21731 + -0.21731)/2.0
 sum -  nocc_ = 0.00000272
 On Iteration in Bisection 19
 a: 0.00000  b:-0.00001

 -0.21731 = (-0.21731 + -0.21731)/2.0
 sum -  nocc_ = -0.00000175
 On Iteration in Bisection 20
 a: -0.00000  b:-0.00001

 -0.21731 = (-0.21731 + -0.21731)/2.0
 sum -  nocc_ = 0.00000048
 On Iteration in Bisection 21
 a: 0.00000  b:-0.00000

 -0.21731 = (-0.21731 + -0.21731)/2.0
 sum -  nocc_ = -0.00000063
 On Iteration in Bisection 22
 a: -0.00000  b:-0.00000

 -0.21731 = (-0.21731 + -0.21731)/2.0
 sum -  nocc_ = -0.00000007
 On Iteration in Bisection 23
 a: -0.00000  b:-0.00000

 -0.21731 = (-0.21731 + -0.21731)/2.0
 sum -  nocc_ = 0.00000020
 On Iteration in Bisection 24
 a: 0.00000  b:-0.00000

[...]
 sum -  nocc_ = -0.00000044
 On Iteration in Bisection 22
 a: -0.00000  b:-0.00000

 -0.21731 = (-0.21731 + -0.21731)/2.0
 sum -  nocc_ = 0.00000012
 On Iteration in Bisection 23
 a: 0.00000  b:-0.00000

 -0.21731 = (-0.21731 + -0.21731)/2.0
 sum -  nocc_ = -0.00000016
 On Iteration in Bisection 24
 a: -0.00000  b:-0.00000

 -0.21731 = (-0.21731 + -0.21731)/2.0
 sum -  nocc_ = -0.00000002
 On Iteration in Bisection 25
 a: -0.00000  b:-0.00000

 -0.21731 = (-0.21731 + -0.21731)/2.0
 sum -  nocc_ = 0.00000005
 On Iteration in Bisection 26
 a: 0.00000  b:-0.00000

 -0.21731 = (-0.21731 + -0.21731)/2.0
 sum -  nocc_ = 0.00000001
 On Iteration in Bisection 27
 a: 0.00000  b:-0.00000

 -0.21731 = (-0.21731 + -0.21731)/2.0
 sum -  nocc_ = -0.00000001
 ef = -0.21731 sum = 1.00000 

 Iter: 35  T:    20000.000  val:-0.217311  sumni 0.00000
 ne = 1.0000

 iter:36  failiter:36  energy:     -0.972804236353  total:     -0.769274540742  error:     -0.000000000021
 In Bisection function HOMO = -0.303  LUMO =  1.507

 0.60192 = (-0.30268 + 1.50652)/2.0
 sum -  nocc_ = 1.69826555
 On Iteration in Bisection 0
 a: 1.69827  b:-0.43679

 0.14962 = (-0.30268 + 0.60192)/2.0
 sum -  nocc_ = 0.98852272
 On Iteration in Bisection 1
 a: 0.98852  b:-0.43679

 -0.07653 = (-0.30268 + 0.14962)/2.0
 sum -  nocc_ = 0.67840984
 On Iteration in Bisection 2
 a: 0.67841  b:-0.43679

 -0.18961 = (-0.30268 + -0.07653)/2.0
 sum -  nocc_ = 0.14324464
 On Iteration in Bisection 3
 a: 0.14324  b:-0.43679

 -0.24615 = (-0.30268 + -0.18961)/2.0
 sum -  nocc_ = -0.14910160
 On Iteration in Bisection 4
 a: -0.14910  b:-0.43679

 -0.21788 = (-0.24615 + -0.18961)/2.0
 sum -  nocc_ = -0.00292679
 On Iteration in Bisection 5
 a: -0.00293  b:-0.14910

 -0.20374 = (-0.21788 + -0.18961)/2.0
 sum -  nocc_ = 0.07014154
 On Iteration in Bisection 6
 a: 0.07014  b:-0.00293

 -0.21081 = (-0.21788 + -0.20374)/2.0
 sum -  nocc_ = 0.03360401
 On Iteration in Bisection 7
 a: 0.03360  b:-0.00293

 -0.21434 = (-0.21788 + -0.21081)/2.0
 sum -  nocc_ = 0.01533819
 On Iteration in Bisection 8
 a: 0.01534  b:-0.00293

 -0.21611 = (-0.21788 + -0.21434)/2.0
 sum -  nocc_ = 0.00620565
 On Iteration in Bisection 9
 a: 0.00621  b:-0.00293

 -0.21699 = (-0.21788 + -0.21611)/2.0
 sum -  nocc_ = 0.00163943
 On Iteration in Bisection 10
 a: 0.00164  b:-0.00293

 -0.21744 = (-0.21788 + -0.21699)/2.0
 sum -  nocc_ = -0.00064368
 On Iteration in Bisection 11
 a: -0.00064  b:-0.00293

 -0.21721 = (-0.21744 + -0.21699)/2.0
 sum -  nocc_ = 0.00049787
 On Iteration in Bisection 12
 a: 0.00050  b:-0.00064

 -0.21733 = (-0.21744 + -0.21721)/2.0
 sum -  nocc_ = -0.00007290
 On Iteration in Bisection 13
 a: -0.00007  b:-0.00064

 -0.21727 = (-0.21733 + -0.21721)/2.0
 sum -  nocc_ = 0.00021249
 On Iteration in Bisection 14
 a: 0.00021  b:-0.00007

 -0.21730 = (-0.21733 + -0.21727)/2.0
 sum -  nocc_ = 0.00006979
 On Iteration in Bisection 15
 a: 0.00007  b:-0.00007

 -0.21731 = (-0.21733 + -0.21730)/2.0
 sum -  nocc_ = -0.00000156
 On Iteration in Bisection 16
 a: -0.00000  b:-0.00007

 -0.21730 = (-0.21731 + -0.21730)/2.0
 sum -  nocc_ = 0.00003412
 On Iteration in Bisection 17
 a: 0.00003  b:-0.00000

 -0.21731 = (-0.21731 + -0.21730)/2.0
 sum -  nocc_ = 0.00001628
 On Iteration in Bisection 18
 a: 0.00002  b:-0.00000

 -0.21731 = (-0.21731 + -0.21731)/2.0
 sum -  nocc_ = 0.00000736
 On Iteration in Bisection 19
 a: 0.00001  b:-0.00000

 -0.21731 = (-0.21731 + -0.21731)/2.0
 sum -  nocc_ = 0.00000290
 On Iteration in Bisection 20
 a: 0.00000  b:-0.00000

 -0.21731 = (-0.21731 + -0.21731)/2.0
 sum -  nocc_ = 0.00000067
 On Iteration in Bisection 21
 a: 0.00000  b:-0.00000

 -0.21731 = (-0.21731 + -0.21731)/2.0
 sum -  nocc_ = -0.00000044
 On Iteration in Bisection 22
 a: -0.00000  b:-0.00000

 -0.21731 = (-0.21731 + -0.21731)/2.0
 sum -  nocc_ = 0.00000012
 On Iteration in Bisection 23
 a: 0.00000  b:-0.00000

 -0.21731 = (-0.21731 + -0.21731)/2.0
 sum -  nocc_ = -0.00000016
 On Iteration in Bisection 24
 a: -0.00000  b:-0.00000

 -0.21731 = (-0.21731 + -0.21731)/2.0
 sum -  nocc_ = -0.00000002
 On Iteration in Bisection 25
 a: -0.00000  b:-0.00000

 -0.21731 = (-0.21731 + -0.21731)/2.0
 sum -  nocc_ = 0.00000005
 On Iteration in Bisection 26
 a: 0.00000  b:-0.00000

 -0.21731 = (-0.21731 + -0.21731)/2.0
 sum -  nocc_ = 0.00000001
 On Iteration in Bisection 27
 a: 0.00000  b:-0.00000

 -0.21731 = (-0.21731 + -0.21731)/2.0
 sum -  nocc_ = -0.00000001
 ef = -0.21731 sum = 1.00000 

 Iter: 36  T:    20000.000  val:-0.217311  sumni 0.00000
 ne = 1.0000

 iter:37  failiter:37  energy:     -0.972804236364  total:     -0.769274540753  error:     -0.000000000011
 In Bisection function HOMO = -0.303  LUMO =  1.507

 0.60192 = (-0.30268 + 1.50652)/2.0
 sum -  nocc_ = 1.69826555
 On Iteration in Bisection 0
 a: 1.69827  b:-0.43679

 0.14962 = (-0.30268 + 0.60192)/2.0
 sum -  nocc_ = 0.98852272
 On Iteration in Bisection 1
 a: 0.98852  b:-0.43679

 -0.07653 = (-0.30268 + 0.14962)/2.0
 sum -  nocc_ = 0.67840984
 On Iteration in Bisection 2
 a: 0.67841  b:-0.43679

 -0.18961 = (-0.30268 + -0.07653)/2.0
 sum -  nocc_ = 0.14324464
 On Iteration in Bisection 3
 a: 0.14324  b:-0.43679

 -0.24615 = (-0.30268 + -0.18961)/2.0
 sum -  nocc_ = -0.14910160
 On Iteration in Bisection 4
 a: -0.14910  b:-0.43679

 -0.21788 = (-0.24615 + -0.18961)/2.0
 sum -  nocc_ = -0.00292679
 On Iteration in Bisection 5
 a: -0.00293  b:-0.14910

 -0.20374 = (-0.21788 + -0.18961)/2.0
 sum -  nocc_ = 0.07014154
 On Iteration in Bisection 6
 a: 0.07014  b:-0.00293

 -0.21081 = (-0.21788 + -0.20374)/2.0
 sum -  nocc_ = 0.03360401
 On Iteration in Bisection 7
 a: 0.03360  b:-0.00293

 -0.21434 = (-0.21788 + -0.21081)/2.0
 sum -  nocc_ = 0.01533819
 On Iteration in Bisection 8
 a: 0.01534  b:-0.00293

 -0.21611 = (-0.21788 + -0.21434)/2.0
 sum -  nocc_ = 0.00620565
 On Iteration in Bisection 9
 a: 0.00621  b:-0.00293

 -0.21699 = (-0.21788 + -0.21611)/2.0
 sum -  nocc_ = 0.00163943
 On Iteration in Bisection 10
 a: 0.00164  b:-0.00293

 -0.21744 = (-0.21788 + -0.21699)/2.0
 sum -  nocc_ = -0.00064368
 On Iteration in Bisection 11
 a: -0.00064  b:-0.00293

 -0.21721 = (-0.21744 + -0.21699)/2.0
 sum -  nocc_ = 0.00049787
 On Iteration in Bisection 12
 a: 0.00050  b:-0.00064

 -0.21733 = (-0.21744 + -0.21721)/2.0
 sum -  nocc_ = -0.00007290
 On Iteration in Bisection 13
 a: -0.00007  b:-0.00064

 -0.21727 = (-0.21733 + -0.21721)/2.0
 sum -  nocc_ = 0.00021249
 On Iteration in Bisection 14
 a: 0.00021  b:-0.00007

 -0.21730 = (-0.21733 + -0.21727)/2.0
 sum -  nocc_ = 0.00006979
 On Iteration in Bisection 15
 a: 0.00007  b:-0.00007

 -0.21731 = (-0.21733 + -0.21730)/2.0
 sum -  nocc_ = -0.00000156
 On Iteration in Bisection 16
 a: -0.00000  b:-0.00007

 -0.21730 = (-0.21731 + -0.21730)/2.0
 sum -  nocc_ = 0.00003412
 On Iteration in Bisection 17
 a: 0.00003  b:-0.00000

 -0.21731 = (-0.21731 + -0.21730)/2.0
 sum -  nocc_ = 0.00001628
 On Iteration in Bisection 18
 a: 0.00002  b:-0.00000

 -0.21731 = (-0.21731 + -0.21731)/2.0
 sum -  nocc_ = 0.00000736
 On Iteration in Bisection 19
 a: 0.00001  b:-0.00000

 -0.21731 = (-0.21731 + -0.21731)/2.0
 sum -  nocc_ = 0.00000290
 On Iteration in Bisection 20
 a: 0.00000  b:-0.00000

 -0.21731 = (-0.21731 + -0.21731)/2.0
 sum -  nocc_ = 0.00000067
 On Iteration in Bisection 21
 a: 0.00000  b:-0.00000

 -0.21731 = (-0.21731 + -0.21731)/2.0
 sum -  nocc_ = -0.00000044
 On Iteration in Bisection 22
 a: -0.00000  b:-0.00000

 -0.21731 = (-0.21731 + -0.21731)/2.0
 sum -  nocc_ = 0.00000012
 On Iteration in Bisection 23
 a: 0.00000  b:-0.00000

 -0.21731 = (-0.21731 + -0.21731)/2.0
 sum -  nocc_ = -0.00000016
 On Iteration in Bisection 24
 a: -0.00000  b:-0.00000

 -0.21731 = (-0.21731 + -0.21731)/2.0
 sum -  nocc_ = -0.00000002
 On Iteration in Bisection 25
 a: -0.00000  b:-0.00000

 -0.21731 = (-0.21731 + -0.21731)/2.0
 sum -  nocc_ = 0.00000005
 On Iteration in Bisection 26
 a: 0.00000  b:-0.00000

 -0.21731 = (-0.21731 + -0.21731)/2.0
 sum -  nocc_ = 0.00000001
 On Iteration in Bisection 27
 a: 0.00000  b:-0.00000

 -0.21731 = (-0.21731 + -0.21731)/2.0
 sum -  nocc_ = -0.00000001
 ef = -0.21731 sum = 1.00000 

 Iter: 37  T:    20000.000  val:-0.217311  sumni 0.00000
 ne = 1.0000

 iter:38  failiter:38  energy:     -0.972804236369  total:     -0.769274540758  error:     -0.000000000005
 In Bisection function HOMO = -0.303  LUMO =  1.507

 0.60192 = (-0.30268 + 1.50652)/2.0
 sum -  nocc_ = 1.69826555
 On Iteration in Bisection 0
 a: 1.69827  b:-0.43679

 0.14962 = (-0.30268 + 0.60192)/2.0
 sum -  nocc_ = 0.98852272
 On Iteration in Bisection 1
 a: 0.98852  b:-0.43679

 -0.07653 = (-0.30268 + 0.14962)/2.0
 sum -  nocc_ = 0.67840984
 On Iteration in Bisection 2
 a: 0.67841  b:-0.43679

 -0.18961 = (-0.30268 + -0.07653)/2.0
 sum -  nocc_ = 0.14324464
 On Iteration in Bisection 3
 a: 0.14324  b:-0.43679

 -0.24615 = (-0.30268 + -0.18961)/2.0
 sum -  nocc_ = -0.14910160
 On Iteration in Bisection 4
 a: -0.14910  b:-0.43679

 -0.21788 = (-0.24615 + -0.18961)/2.0
 sum -  nocc_ = -0.00292679
 On Iteration in Bisection 5
 a: -0.00293  b:-0.14910

 -0.20374 = (-0.21788 + -0.18961)/2.0
 sum -  nocc_ = 0.07014154
 On Iteration in Bisection 6
 a: 0.07014  b:-0.00293

 -0.21081 = (-0.21788 + -0.20374)/2.0
 sum -  nocc_ = 0.03360401
 On Iteration in Bisection 7
 a: 0.03360  b:-0.00293

 -0.21434 = (-0.21788 + -0.21081)/2.0
 sum -  nocc_ = 0.01533819
 On Iteration in Bisection 8
 a: 0.01534  b:-0.00293

 -0.21611 = (-0.21788 + -0.21434)/2.0
 sum -  nocc_ = 0.00620565
 On Iteration in Bisection 9
 a: 0.00621  b:-0.00293

 -0.21699 = (-0.21788 + -0.21611)/2.0
 sum -  nocc_ = 0.00163943
 On Iteration in Bisection 10
 a: 0.00164  b:-0.00293

 -0.21744 = (-0.21788 + -0.21699)/2.0
 sum -  nocc_ = -0.00064368
 On Iteration in Bisection 11
 a: -0.00064  b:-0.00293

 -0.21721 = (-0.21744 + -0.21699)/2.0
 sum -  nocc_ = 0.00049787
 On Iteration in Bisection 12
 a: 0.00050  b:-0.00064

 -0.21733 = (-0.21744 + -0.21721)/2.0
 sum -  nocc_ = -0.00007290
 On Iteration in Bisection 13
 a: -0.00007  b:-0.00064

 -0.21727 = (-0.21733 + -0.21721)/2.0
 sum -  nocc_ = 0.00021249
 On Iteration in Bisection 14
 a: 0.00021  b:-0.00007

 -0.21730 = (-0.21733 + -0.21727)/2.0
 sum -  nocc_ = 0.00006979
 On Iteration in Bisection 15
 a: 0.00007  b:-0.00007

 -0.21731 = (-0.21733 + -0.21730)/2.0
 sum -  nocc_ = -0.00000156
 On Iteration in Bisection 16
 a: -0.00000  b:-0.00007

 -0.21730 = (-0.21731 + -0.21730)/2.0
 sum -  nocc_ = 0.00003412
 On Iteration in Bisection 17
 a: 0.00003  b:-0.00000

 -0.21731 = (-0.21731 + -0.21730)/2.0
 sum -  nocc_ = 0.00001628
 On Iteration in Bisection 18
 a: 0.00002  b:-0.00000

 -0.21731 = (-0.21731 + -0.21731)/2.0
 sum -  nocc_ = 0.00000736
 On Iteration in Bisection 19
 a: 0.00001  b:-0.00000

 -0.21731 = (-0.21731 + -0.21731)/2.0
 sum -  nocc_ = 0.00000290
 On Iteration in Bisection 20
 a: 0.00000  b:-0.00000

 -0.21731 = (-0.21731 + -0.21731)/2.0
 sum -  nocc_ = 0.00000067
 On Iteration in Bisection 21
 a: 0.00000  b:-0.00000

 -0.21731 = (-0.21731 + -0.21731)/2.0
 sum -  nocc_ = -0.00000044
 On Iteration in Bisection 22
 a: -0.00000  b:-0.00000

 -0.21731 = (-0.21731 + -0.21731)/2.0
 sum -  nocc_ = 0.00000012
 On Iteration in Bisection 23
 a: 0.00000  b:-0.00000

 -0.21731 = (-0.21731 + -0.21731)/2.0
 sum -  nocc_ = -0.00000016
 On Iteration in Bisection 24
 a: -0.00000  b:-0.00000

 -0.21731 = (-0.21731 + -0.21731)/2.0
 sum -  nocc_ = -0.00000002
 On Iteration in Bisection 25
 a: -0.00000  b:-0.00000

 -0.21731 = (-0.21731 + -0.21731)/2.0
 sum -  nocc_ = 0.00000005
 On Iteration in Bisection 26
 a: 0.00000  b:-0.00000

 -0.21731 = (-0.21731 + -0.21731)/2.0
 sum -  nocc_ = 0.00000001
 On Iteration in Bisection 27
 a: 0.00000  b:-0.00000

 -0.21731 = (-0.21731 + -0.21731)/2.0
 sum -  nocc_ = -0.00000001
 ef = -0.21731 sum = 1.00000 

 Iter: 38  T:    20000.000  val:-0.217311  sumni 0.00000
 ne = 1.0000

 iter:39  failiter:39  energy:     -0.972804236372  total:     -0.769274540761  error:     -0.000000000003
 In Bisection function HOMO = -0.303  LUMO =  1.507

 0.60192 = (-0.30268 + 1.50652)/2.0
 sum -  nocc_ = 1.69826555
 On Iteration in Bisection 0
 a: 1.69827  b:-0.43679

 0.14962 = (-0.30268 + 0.60192)/2.0
 sum -  nocc_ = 0.98852272
 On Iteration in Bisection 1
 a: 0.98852  b:-0.43679

 -0.07653 = (-0.30268 + 0.14962)/2.0
 sum -  nocc_ = 0.67840984
 On Iteration in Bisection 2
 a: 0.67841  b:-0.43679

 -0.18961 = (-0.30268 + -0.07653)/2.0
 sum -  nocc_ = 0.14324464
 On Iteration in Bisection 3
 a: 0.14324  b:-0.43679

 -0.24615 = (-0.30268 + -0.18961)/2.0
 sum -  nocc_ = -0.14910160
 On Iteration in Bisection 4
 a: -0.14910  b:-0.43679

 -0.21788 = (-0.24615 + -0.18961)/2.0
 sum -  nocc_ = -0.00292679
 On Iteration in Bisection 5
 a: -0.00293  b:-0.14910

 -0.20374 = (-0.21788 + -0.18961)/2.0
 sum -  nocc_ = 0.07014154
 On Iteration in Bisection 6
 a: 0.07014  b:-0.00293

 -0.21081 = (-0.21788 + -0.20374)/2.0
 sum -  nocc_ = 0.03360401
 On Iteration in Bisection 7
 a: 0.03360  b:-0.00293

 -0.21434 = (-0.21788 + -0.21081)/2.0
 sum -  nocc_ = 0.01533819
 On Iteration in Bisection 8
 a: 0.01534  b:-0.00293

 -0.21611 = (-0.21788 + -0.21434)/2.0
 sum -  nocc_ = 0.00620565
 On Iteration in Bisection 9
 a: 0.00621  b:-0.00293

 -0.21699 = (-0.21788 + -0.21611)/2.0
 sum -  nocc_ = 0.00163943
 On Iteration in Bisection 10
 a: 0.00164  b:-0.00293

 -0.21744 = (-0.21788 + -0.21699)/2.0
 sum -  nocc_ = -0.00064368
 On Iteration in Bisection 11
 a: -0.00064  b:-0.00293

 -0.21721 = (-0.21744 + -0.21699)/2.0
 sum -  nocc_ = 0.00049787
 On Iteration in Bisection 12
 a: 0.00050  b:-0.00064

 -0.21733 = (-0.21744 + -0.21721)/2.0
 sum -  nocc_ = -0.00007290
 On Iteration in Bisection 13
 a: -0.00007  b:-0.00064

 -0.21727 = (-0.21733 + -0.21721)/2.0
 sum -  nocc_ = 0.00021249
 On Iteration in Bisection 14
 a: 0.00021  b:-0.00007

 -0.21730 = (-0.21733 + -0.21727)/2.0
 sum -  nocc_ = 0.00006979
 On Iteration in Bisection 15
 a: 0.00007  b:-0.00007

 -0.21731 = (-0.21733 + -0.21730)/2.0
 sum -  nocc_ = -0.00000156
 On Iteration in Bisection 16
 a: -0.00000  b:-0.00007

 -0.21730 = (-0.21731 + -0.21730)/2.0
 sum -  nocc_ = 0.00003412
 On Iteration in Bisection 17
 a: 0.00003  b:-0.00000

 -0.21731 = (-0.21731 + -0.21730)/2.0
 sum -  nocc_ = 0.00001628
 On Iteration in Bisection 18
 a: 0.00002  b:-0.00000

 -0.21731 = (-0.21731 + -0.21731)/2.0
 sum -  nocc_ = 0.00000736
 On Iteration in Bisection 19
 a: 0.00001  b:-0.00000

 -0.21731 = (-0.21731 + -0.21731)/2.0
 sum -  nocc_ = 0.00000290
 On Iteration in Bisection 20
 a: 0.00000  b:-0.00000

 -0.21731 = (-0.21731 + -0.21731)/2.0
 sum -  nocc_ = 0.00000067
 On Iteration in Bisection 21
 a: 0.00000  b:-0.00000

 -0.21731 = (-0.21731 + -0.21731)/2.0
 sum -  nocc_ = -0.00000044
 On Iteration in Bisection 22
 a: -0.00000  b:-0.00000

 -0.21731 = (-0.21731 + -0.21731)/2.0
 sum -  nocc_ = 0.00000012
 On Iteration in Bisection 23
 a: 0.00000  b:-0.00000

 -0.21731 = (-0.21731 + -0.21731)/2.0
 sum -  nocc_ = -0.00000016
 On Iteration in Bisection 24
 a: -0.00000  b:-0.00000

 -0.21731 = (-0.21731 + -0.21731)/2.0
 sum -  nocc_ = -0.00000002
 On Iteration in Bisection 25
 a: -0.00000  b:-0.00000

 -0.21731 = (-0.21731 + -0.21731)/2.0
 sum -  nocc_ = 0.00000005
 On Iteration in Bisection 26
 a: 0.00000  b:-0.00000

 -0.21731 = (-0.21731 + -0.21731)/2.0
 sum -  nocc_ = 0.00000001
 On Iteration in Bisection 27
 a: 0.00000  b:-0.00000

 -0.21731 = (-0.21731 + -0.21731)/2.0
 sum -  nocc_ = -0.00000001
 ef = -0.21731 sum = 1.00000 

 Iter: 39  T:    20000.000  val:-0.217311  sumni 0.00000
 ne = 1.0000

 iter:40  failiter:40  energy:     -0.972804236373  total:     -0.769274540762  error:     -0.000000000001
 In Bisection function HOMO = -0.303  LUMO =  1.507

 0.60192 = (-0.30268 + 1.50652)/2.0
 sum -  nocc_ = 1.69826555
 On Iteration in Bisection 0
 a: 1.69827  b:-0.43679

 0.14962 = (-0.30268 + 0.60192)/2.0
 sum -  nocc_ = 0.98852272
 On Iteration in Bisection 1
 a: 0.98852  b:-0.43679

 -0.07653 = (-0.30268 + 0.14962)/2.0
 sum -  nocc_ = 0.67840984
 On Iteration in Bisection 2
 a: 0.67841  b:-0.43679

 -0.18961 = (-0.30268 + -0.07653)/2.0
 sum -  nocc_ = 0.14324464
 On Iteration in Bisection 3
 a: 0.14324  b:-0.43679

 -0.24615 = (-0.30268 + -0.18961)/2.0
 sum -  nocc_ = -0.14910160
 On Iteration in Bisection 4
 a: -0.14910  b:-0.43679

 -0.21788 = (-0.24615 + -0.18961)/2.0
 sum -  nocc_ = -0.00292679
 On Iteration in Bisection 5
 a: -0.00293  b:-0.14910

 -0.20374 = (-0.21788 + -0.18961)/2.0
 sum -  nocc_ = 0.07014154
 On Iteration in Bisection 6
 a: 0.07014  b:-0.00293

 -0.21081 = (-0.21788 + -0.20374)/2.0
 sum -  nocc_ = 0.03360401
 On Iteration in Bisection 7
 a: 0.03360  b:-0.00293

 -0.21434 = (-0.21788 + -0.21081)/2.0
 sum -  nocc_ = 0.01533819
 On Iteration in Bisection 8
 a: 0.01534  b:-0.00293

 -0.21611 = (-0.21788 + -0.21434)/2.0
 sum -  nocc_ = 0.00620565
 On Iteration in Bisection 9
 a: 0.00621  b:-0.00293

 -0.21699 = (-0.21788 + -0.21611)/2.0
 sum -  nocc_ = 0.00163943
 On Iteration in Bisection 10
 a: 0.00164  b:-0.00293

 -0.21744 = (-0.21788 + -0.21699)/2.0
 sum -  nocc_ = -0.00064368
 On Iteration in Bisection 11
 a: -0.00064  b:-0.00293

 -0.21721 = (-0.21744 + -0.21699)/2.0
 sum -  nocc_ = 0.00049787
 On Iteration in Bisection 12
 a: 0.00050  b:-0.00064

 -0.21733 = (-0.21744 + -0.21721)/2.0
 sum -  nocc_ = -0.00007290
 On Iteration in Bisection 13
 a: -0.00007  b:-0.00064

 -0.21727 = (-0.21733 + -0.21721)/2.0
 sum -  nocc_ = 0.00021249
 On Iteration in Bisection 14
 a: 0.00021  b:-0.00007

 -0.21730 = (-0.21733 + -0.21727)/2.0
 sum -  nocc_ = 0.00006979
 On Iteration in Bisection 15
 a: 0.00007  b:-0.00007

 -0.21731 = (-0.21733 + -0.21730)/2.0
 sum -  nocc_ = -0.00000156
 On Iteration in Bisection 16
 a: -0.00000  b:-0.00007

 -0.21730 = (-0.21731 + -0.21730)/2.0
 sum -  nocc_ = 0.00003412
 On Iteration in Bisection 17
 a: 0.00003  b:-0.00000

 -0.21731 = (-0.21731 + -0.21730)/2.0
 sum -  nocc_ = 0.00001628
 On Iteration in Bisection 18
 a: 0.00002  b:-0.00000

 -0.21731 = (-0.21731 + -0.21731)/2.0
 sum -  nocc_ = 0.00000736
 On Iteration in Bisection 19
 a: 0.00001  b:-0.00000

 -0.21731 = (-0.21731 + -0.21731)/2.0
 sum -  nocc_ = 0.00000290
 On Iteration in Bisection 20
 a: 0.00000  b:-0.00000

 -0.21731 = (-0.21731 + -0.21731)/2.0
 sum -  nocc_ = 0.00000067
 On Iteration in Bisection 21
 a: 0.00000  b:-0.00000

 -0.21731 = (-0.21731 + -0.21731)/2.0
 sum -  nocc_ = -0.00000044
 On Iteration in Bisection 22
 a: -0.00000  b:-0.00000

 -0.21731 = (-0.21731 + -0.21731)/2.0
 sum -  nocc_ = 0.00000012
 On Iteration in Bisection 23
 a: 0.00000  b:-0.00000

 -0.21731 = (-0.21731 + -0.21731)/2.0
 sum -  nocc_ = -0.00000016
 On Iteration in Bisection 24
 a: -0.00000  b:-0.00000

 -0.21731 = (-0.21731 + -0.21731)/2.0
 sum -  nocc_ = -0.00000002
 On Iteration in Bisection 25
 a: -0.00000  b:-0.00000

 -0.21731 = (-0.21731 + -0.21731)/2.0
 sum -  nocc_ = 0.00000005
 On Iteration in Bisection 26
 a: 0.00000  b:-0.00000

 -0.21731 = (-0.21731 + -0.21731)/2.0
 sum -  nocc_ = 0.00000001
 On Iteration in Bisection 27
 a: 0.00000  b:-0.00000

 -0.21731 = (-0.21731 + -0.21731)/2.0
 sum -  nocc_ = -0.00000001
 ef = -0.21731 sum = 1.00000 

 Iter: 40  T:    20000.000  val:-0.217311  sumni 0.00000
 ne = 1.0000

 iter:41  failiter:41  energy:     -0.972804236374  total:     -0.769274540762  error:     -0.000000000001
 FTHFEnergy =    -0.769275
 FD_dis[0] = 0.79380399 with -0.302684 eig value
 FD_dis[1] = 0.20619324 with -0.131937 eig value
 FD_dis[2] = 0.00000196 with 0.614964 eig value
 FD_dis[3] = 0.00000080 with 0.671641 eig value
 FD_dis[4] = 0.00000000 with 1.461041 eig value
 FD_dis[5] = 0.00000000 with 1.464843 eig value
 FD_dis[6] = 0.00000000 with 1.464843 eig value
 FD_dis[7] = 0.00000000 with 1.468958 eig value
 FD_dis[8] = 0.00000000 with 1.468958 eig value
 FD_dis[9] = 0.00000000 with 1.506524 eig value
*** PSI4 exiting successfully. Buy a developer a beer!
