    -----------------------------------------------------------------------
          PSI4: An Open-Source Ab Initio Electronic Structure Package
                              PSI 4.0 Driver

               Git: Rev {master} 556e8139d3cfa1f96ccffe2cdf22cc56a185d2b2

    J. M. Turney, A. C. Simmonett, R. M. Parrish, E. G. Hohenstein,
    F. A. Evangelista, J. T. Fermann, B. J. Mintz, L. A. Burns, J. J. Wilke,
    M. L. Abrams, N. J. Russ, M. L. Leininger, C. L. Janssen, E. T. Seidl,
    W. D. Allen, H. F. Schaefer, R. A. King, E. F. Valeev, C. D. Sherrill,
    and T. D. Crawford, WIREs Comput. Mol. Sci. 2, 556-565 (2012)
    (doi: 10.1002/wcms.93)

                         Additional Contributions by
    A. E. DePrince, M. Saitow, U. Bozkaya, A. Yu. Sokolov
    -----------------------------------------------------------------------

    Process ID:  14575
    PSI4DATADIR: /Users/kevinhannon/Programs/psi4cmake/psi4/lib
    Memory level set to 256.000 MB

  ==> Input File <==

--------------------------------------------------------------------------

# PYTHONPATH must include directory above plugin directory.
#     Define either externally or here, then import plugin.
sys.path.insert(0, '/Users/kevinhannon/Programs/Quantum_Programs/Quantum-Programs/GS/')
import scf

molecule {
0 1
H
H 1 2.40000
symmetry c1
units angstrom
}


set {
  basis cc-pvdz
  reference rhf
  scf_type  pk
}

set scf {
  DO_FTHF true
  MAX_ITER 130
  MAX_TEMP 20000
  TEMP_INCREMENT 0
  bisect  true
  bisect_iter  40
}
energy('rhf')
energy('scf')


--------------------------------------------------------------------------

*** tstart() called on Kevins-MacBook-Pro.local
*** at Sun Apr 12 15:46:06 2015

/Users/kevinhannon/Programs/Quantum_Programs/Quantum-Programs/GS/scf/scf.so loaded.

*** tstart() called on Kevins-MacBook-Pro.local
*** at Sun Apr 12 15:46:06 2015


         ---------------------------------------------------------
                                   SCF
            by Justin Turney, Rob Parrish, and Andy Simmonett
                              RHF Reference
                        1 Threads,    256 MiB Core
         ---------------------------------------------------------

  ==> Geometry <==

    Molecular point group: c1
    Full point group: D_inf_h

    Geometry (in Angstrom), charge = 0, multiplicity = 1:

       Center              X                  Y                   Z       
    ------------   -----------------  -----------------  -----------------
           H          0.000000000000     0.000000000000    -1.200000000000
           H          0.000000000000     0.000000000000     1.200000000000

  Running in c1 symmetry.

  Rotational constants: A = ************  B =      5.80790  C =      5.80790 [cm^-1]
  Rotational constants: A = ************  B = 174116.35512  C = 174116.35512 [MHz]
  Nuclear repulsion =    0.220490503579167

  Charge       = 0
  Multiplicity = 1
  Electrons    = 2
  Nalpha       = 1
  Nbeta        = 1

  ==> Algorithm <==

  SCF Algorithm Type is PK.
  DIIS enabled.
  MOM disabled.
  Fractional occupation disabled.
  Guess Type is CORE.
  Energy threshold   = 1.00e-06
  Density threshold  = 1.00e-06
  Integral threshold = 0.00e+00

  ==> Primary Basis <==

  Basis Set: CC-PVDZ
    Number of shells: 6
    Number of basis function: 10
    Number of Cartesian functions: 10
    Spherical Harmonics?: true
    Max angular momentum: 1

  ==> Pre-Iterations <==

   -------------------------------------------------------
    Irrep   Nso     Nmo     Nalpha   Nbeta   Ndocc  Nsocc
   -------------------------------------------------------
     A         10      10       0       0       0       0
   -------------------------------------------------------
    Total      10      10       1       1       1       0
   -------------------------------------------------------

  Starting with a DF guess...

 OEINTS: Overlap, kinetic, potential, dipole, and quadrupole integrals
         stored in file 35.

  ==> Integral Setup <==

  ==> DFJK: Density-Fitted J/K Matrices <==

    J tasked:                  Yes
    K tasked:                  Yes
    wK tasked:                  No
    OpenMP threads:              1
    Integrals threads:           1
    Memory (MB):               183
    Algorithm:                Core
    Integral Cache:           NONE
    Schwarz Cutoff:          1E-12
    Fitting Condition:       1E-12

   => Auxiliary Basis Set <=

  Basis Set: 
    Number of shells: 18
    Number of basis function: 46
    Number of Cartesian functions: 50
    Spherical Harmonics?: true
    Max angular momentum: 2

  Minimum eigenvalue in the overlap matrix is 2.4096393588E-01.
  Using Symmetric Orthogonalization.
  SCF Guess: Core (One-Electron) Hamiltonian.

  ==> Iterations <==

                           Total Energy        Delta E     RMS |[F,P]|

   @DF-RHF iter   1:    -0.85634209219844   -8.56342e-01   1.27624e-02 
   @DF-RHF iter   2:    -0.87447104492781   -1.81290e-02   2.20707e-03 DIIS
   @DF-RHF iter   3:    -0.87504980840066   -5.78763e-04   4.65417e-05 DIIS
   @DF-RHF iter   4:    -0.87505000187381   -1.93473e-07   8.33535e-07 DIIS

  DF guess converged.

  ==> Integral Setup <==

 MINTS: Wrapper to libmints.
   by Justin Turney

   Calculation information:
      Number of atoms:                   2
      Number of AO shells:               6
      Number of SO shells:               6
      Number of primitives:             10
      Number of atomic orbitals:        10
      Number of basis functions:        10

      Number of irreps:                  1
      Integral cutoff                 0.00e+00
      Number of functions per irrep: [  10 ]

 OEINTS: Overlap, kinetic, potential, dipole, and quadrupole integrals
         stored in file 35.

      Computing two-electron integrals...done
      Computed 512 non-zero two-electron integrals.
        Stored in file 33.

	Batch   1 pq = [       0,      55] index = [             0,1540]
  ==> DiskJK: Disk-Based J/K Matrices <==

    J tasked:                  Yes
    K tasked:                  Yes
    wK tasked:                  No
    Memory (MB):               183
    Schwarz Cutoff:          1E-12

   @RHF iter   5:    -0.87503119554233    1.88063e-05   5.81425e-06 DIIS
   @RHF iter   6:    -0.87503119899925   -3.45692e-09   9.70726e-07 DIIS

  ==> Post-Iterations <==

    Orbital Energies (a.u.)
    -----------------------

    Doubly Occupied:                                                      

       1A     -0.355630  

    Virtual:                                                              

       2A     -0.076589     3A      0.633694     4A      0.663988  
       5A      1.442825     6A      1.463122     7A      1.463122  
       8A      1.473843     9A      1.473843    10A      1.545064  

    Final Occupation by Irrep:
              A 
    DOCC [     1 ]

  Energy converged.

  @RHF Final Energy:    -0.87503119899925

   => Energetics <=

    Nuclear Repulsion Energy =              0.2204905035791667
    One-Electron Energy =                  -1.4797816266943906
    Two-Electron Energy =                   0.3842599241159779
    DFT Exchange-Correlation Energy =       0.0000000000000000
    Empirical Dispersion Energy =           0.0000000000000000
    PCM Polarization Energy =               0.0000000000000000
    EFP Energy =                            0.0000000000000000
    Total Energy =                         -0.8750311989992461

    Alert: EFP and PCM quantities not currently incorporated into SCF psivars.

Properties will be evaluated at   0.000000,   0.000000,   0.000000 Bohr
  ==> Properties <==


Properties computed using the SCF density matrix

  Nuclear Dipole Moment: (a.u.)
     X:     0.0000      Y:     0.0000      Z:     0.0000

  Electronic Dipole Moment: (a.u.)
     X:     0.0000      Y:     0.0000      Z:     0.0000

  Dipole Moment: (a.u.)
     X:     0.0000      Y:     0.0000      Z:     0.0000     Total:     0.0000

  Dipole Moment: (Debye)
     X:     0.0000      Y:     0.0000      Z:     0.0000     Total:     0.0000


  Saving occupied orbitals to File 180.

*** tstop() called on Kevins-MacBook-Pro.local at Sun Apr 12 15:46:06 2015
Module time:
	user time   =       0.21 seconds =       0.00 minutes
	system time =       0.02 seconds =       0.00 minutes
	total time  =          0 seconds =       0.00 minutes
Total time:
	user time   =       0.22 seconds =       0.00 minutes
	system time =       0.02 seconds =       0.00 minutes
	total time  =          0 seconds =       0.00 minutes

*** tstart() called on Kevins-MacBook-Pro.local
*** at Sun Apr 12 15:46:06 2015


         ---------------------------------------------------------
                                   SCF
            by Justin Turney, Rob Parrish, and Andy Simmonett
                              RHF Reference
                        1 Threads,    256 MiB Core
         ---------------------------------------------------------

  ==> Geometry <==

    Molecular point group: c1
    Full point group: D_inf_h

    Geometry (in Angstrom), charge = 0, multiplicity = 1:

       Center              X                  Y                   Z       
    ------------   -----------------  -----------------  -----------------
           H          0.000000000000     0.000000000000    -1.200000000000
           H          0.000000000000     0.000000000000     1.200000000000

  Running in c1 symmetry.

  Rotational constants: A = ************  B =      5.80790  C =      5.80790 [cm^-1]
  Rotational constants: A = ************  B = 174116.35512  C = 174116.35512 [MHz]
  Nuclear repulsion =    0.220490503579167

  Charge       = 0
  Multiplicity = 1
  Electrons    = 2
  Nalpha       = 1
  Nbeta        = 1

  ==> Algorithm <==

  SCF Algorithm Type is PK.
  DIIS enabled.
  MOM disabled.
  Fractional occupation disabled.
  Guess Type is CORE.
  Energy threshold   = 1.00e-08
  Density threshold  = 1.00e-08
  Integral threshold = 0.00e+00

  ==> Primary Basis <==

  Basis Set: CC-PVDZ
    Number of shells: 6
    Number of basis function: 10
    Number of Cartesian functions: 10
    Spherical Harmonics?: true
    Max angular momentum: 1

  ==> Pre-Iterations <==

   -------------------------------------------------------
    Irrep   Nso     Nmo     Nalpha   Nbeta   Ndocc  Nsocc
   -------------------------------------------------------
     A         10      10       0       0       0       0
   -------------------------------------------------------
    Total      10      10       1       1       1       0
   -------------------------------------------------------

  Starting with a DF guess...

 OEINTS: Overlap, kinetic, potential, dipole, and quadrupole integrals
         stored in file 35.

  ==> Integral Setup <==

  ==> DFJK: Density-Fitted J/K Matrices <==

    J tasked:                  Yes
    K tasked:                  Yes
    wK tasked:                  No
    OpenMP threads:              1
    Integrals threads:           1
    Memory (MB):               183
    Algorithm:                Core
    Integral Cache:           NONE
    Schwarz Cutoff:          1E-12
    Fitting Condition:       1E-12

   => Auxiliary Basis Set <=

  Basis Set: 
    Number of shells: 18
    Number of basis function: 46
    Number of Cartesian functions: 50
    Spherical Harmonics?: true
    Max angular momentum: 2

  Minimum eigenvalue in the overlap matrix is 2.4096393588E-01.
  Using Symmetric Orthogonalization.
  SCF Guess: Core (One-Electron) Hamiltonian.

  ==> Iterations <==

                           Total Energy        Delta E     RMS |[F,P]|

   @DF-RHF iter   1:    -0.85634209219844   -8.56342e-01   1.27624e-02 
   @DF-RHF iter   2:    -0.87447104492781   -1.81290e-02   2.20707e-03 DIIS
   @DF-RHF iter   3:    -0.87504980840066   -5.78763e-04   4.65417e-05 DIIS
   @DF-RHF iter   4:    -0.87505000187381   -1.93473e-07   8.33535e-07 DIIS
   @DF-RHF iter   5:    -0.87505000192866   -5.48428e-11   2.15940e-10 DIIS

  DF guess converged.

  ==> Integral Setup <==

 MINTS: Wrapper to libmints.
   by Justin Turney

   Calculation information:
      Number of atoms:                   2
      Number of AO shells:               6
      Number of SO shells:               6
      Number of primitives:             10
      Number of atomic orbitals:        10
      Number of basis functions:        10

      Number of irreps:                  1
      Integral cutoff                 0.00e+00
      Number of functions per irrep: [  10 ]

 OEINTS: Overlap, kinetic, potential, dipole, and quadrupole integrals
         stored in file 35.

      Computing two-electron integrals...done
      Computed 512 non-zero two-electron integrals.
        Stored in file 33.

	Batch   1 pq = [       0,      55] index = [             0,1540]
  ==> DiskJK: Disk-Based J/K Matrices <==

    J tasked:                  Yes
    K tasked:                  Yes
    wK tasked:                  No
    Memory (MB):               183
    Schwarz Cutoff:          1E-12

   @RHF iter   6:    -0.87503119554260    1.88064e-05   5.81403e-06 DIIS
   @RHF iter   7:    -0.87503119899925   -3.45666e-09   9.70690e-07 DIIS
   @RHF iter   8:    -0.87503119910603   -1.06774e-10   2.71359e-08 DIIS
   @RHF iter   9:    -0.87503119910610   -7.03881e-14   1.90338e-13 DIIS

  ==> Post-Iterations <==

    Orbital Energies (a.u.)
    -----------------------

    Doubly Occupied:                                                      

       1A     -0.355630  

    Virtual:                                                              

       2A     -0.076589     3A      0.633694     4A      0.663988  
       5A      1.442825     6A      1.463122     7A      1.463122  
       8A      1.473843     9A      1.473843    10A      1.545064  

    Final Occupation by Irrep:
              A 
    DOCC [     1 ]

  Energy converged.

  @RHF Final Energy:    -0.87503119910610

   => Energetics <=

    Nuclear Repulsion Energy =              0.2204905035791667
    One-Electron Energy =                  -1.4797840828815141
    Two-Electron Energy =                   0.3842623801962479
    DFT Exchange-Correlation Energy =       0.0000000000000000
    Empirical Dispersion Energy =           0.0000000000000000
    PCM Polarization Energy =               0.0000000000000000
    EFP Energy =                            0.0000000000000000
    Total Energy =                         -0.8750311991060995

    Alert: EFP and PCM quantities not currently incorporated into SCF psivars.

Properties will be evaluated at   0.000000,   0.000000,   0.000000 Bohr
  ==> Properties <==


Properties computed using the SCF density matrix

  Nuclear Dipole Moment: (a.u.)
     X:     0.0000      Y:     0.0000      Z:     0.0000

  Electronic Dipole Moment: (a.u.)
     X:     0.0000      Y:     0.0000      Z:     0.0000

  Dipole Moment: (a.u.)
     X:     0.0000      Y:     0.0000      Z:     0.0000     Total:     0.0000

  Dipole Moment: (Debye)
     X:     0.0000      Y:     0.0000      Z:     0.0000     Total:     0.0000


  Saving occupied orbitals to File 180.

*** tstop() called on Kevins-MacBook-Pro.local at Sun Apr 12 15:46:06 2015
Module time:
	user time   =       0.19 seconds =       0.00 minutes
	system time =       0.01 seconds =       0.00 minutes
	total time  =          0 seconds =       0.00 minutes
Total time:
	user time   =       0.42 seconds =       0.01 minutes
	system time =       0.03 seconds =       0.00 minutes
	total time  =          0 seconds =       0.00 minutes
Reading options from the SCF block
Calling plugin scf.so.
    Molecular point group: c1
    Full point group: D_inf_h

    Geometry (in Angstrom), charge = 0, multiplicity = 1:

       Center              X                  Y                   Z       
    ------------   -----------------  -----------------  -----------------
           H          0.000000000000     0.000000000000    -1.200000000000
           H          0.000000000000     0.000000000000     1.200000000000


    Nuclear repulsion energy:       0.22049050

  ## Overlap (Symmetry 0) ##
  Irrep: 1 Size: 10 x 10

                 1                   2                   3                   4                   5

    1     1.00000000000000     0.68486025149275     0.00000000000000     0.00000000000000     0.00000000000000
    2     0.68486025149275     1.00000000000000     0.00000000000000     0.00000000000000     0.00000000000000
    3     0.00000000000000     0.00000000000000     1.00000000000000     0.00000000000000     0.00000000000000
    4     0.00000000000000     0.00000000000000     0.00000000000000     1.00000000000000     0.00000000000000
    5     0.00000000000000     0.00000000000000     0.00000000000000     0.00000000000000     1.00000000000000
    6     0.00699299896276     0.09200396105549     0.00785559771765     0.00000000000000     0.00000000000000
    7     0.09200396105549     0.28515301493963     0.07616026565918     0.00000000000000     0.00000000000000
    8    -0.00785559771765    -0.07616026565918    -0.00789762402091     0.00000000000000     0.00000000000000
    9     0.00000000000000     0.00000000000000     0.00000000000000     0.00056597946822     0.00000000000000
   10     0.00000000000000     0.00000000000000     0.00000000000000     0.00000000000000     0.00056597946822

                 6                   7                   8                   9                  10

    1     0.00699299896276     0.09200396105549    -0.00785559771765     0.00000000000000     0.00000000000000
    2     0.09200396105549     0.28515301493963    -0.07616026565918     0.00000000000000     0.00000000000000
    3     0.00785559771765     0.07616026565918    -0.00789762402091     0.00000000000000     0.00000000000000
    4     0.00000000000000     0.00000000000000     0.00000000000000     0.00056597946822     0.00000000000000
    5     0.00000000000000     0.00000000000000     0.00000000000000     0.00000000000000     0.00056597946822
    6     1.00000000000000     0.68486025149275    -0.00000000000000     0.00000000000000     0.00000000000000
    7     0.68486025149275     1.00000000000000     0.00000000000000     0.00000000000000     0.00000000000000
    8    -0.00000000000000     0.00000000000000     1.00000000000000     0.00000000000000     0.00000000000000
    9     0.00000000000000     0.00000000000000     0.00000000000000     1.00000000000000     0.00000000000000
   10     0.00000000000000     0.00000000000000     0.00000000000000     0.00000000000000     1.00000000000000



  ## Kinetic (Symmetry 0) ##
  Irrep: 1 Size: 10 x 10

                 1                   2                   3                   4                   5

    1     0.96945722711242     0.20123413106538     0.00000000000000     0.00000000000000     0.00000000000000
    2     0.20123413106538     0.18300000000000     0.00000000000000     0.00000000000000     0.00000000000000
    3     0.00000000000000     0.00000000000000     1.81750000000000     0.00000000000000     0.00000000000000
    4     0.00000000000000     0.00000000000000     0.00000000000000     1.81750000000000     0.00000000000000
    5     0.00000000000000     0.00000000000000     0.00000000000000     0.00000000000000     1.81750000000000
    6    -0.01000705920776    -0.00906921732098    -0.01390665708516     0.00000000000000     0.00000000000000
    7    -0.00906921732098     0.00853263922986     0.00558770614216     0.00000000000000     0.00000000000000
    8     0.01390665708516    -0.00558770614216     0.02242249615126     0.00000000000000     0.00000000000000
    9     0.00000000000000     0.00000000000000     0.00000000000000    -0.00204785218481     0.00000000000000
   10     0.00000000000000     0.00000000000000     0.00000000000000     0.00000000000000    -0.00204785218481

                 6                   7                   8                   9                  10

    1    -0.01000705920776    -0.00906921732098     0.01390665708516     0.00000000000000     0.00000000000000
    2    -0.00906921732098     0.00853263922986    -0.00558770614216     0.00000000000000     0.00000000000000
    3    -0.01390665708516     0.00558770614216     0.02242249615126     0.00000000000000     0.00000000000000
    4     0.00000000000000     0.00000000000000     0.00000000000000    -0.00204785218481     0.00000000000000
    5     0.00000000000000     0.00000000000000     0.00000000000000     0.00000000000000    -0.00204785218481
    6     0.96945722711242     0.20123413106538    -0.00000000000000     0.00000000000000     0.00000000000000
    7     0.20123413106538     0.18300000000000     0.00000000000000     0.00000000000000     0.00000000000000
    8    -0.00000000000000     0.00000000000000     1.81750000000000     0.00000000000000     0.00000000000000
    9     0.00000000000000     0.00000000000000     0.00000000000000     1.81750000000000     0.00000000000000
   10     0.00000000000000     0.00000000000000     0.00000000000000     0.00000000000000     1.81750000000000



  ## Potential (Symmetry 0) ##
  Irrep: 1 Size: 10 x 10

                 1                   2                   3                   4                   5

    1    -1.59835228805460    -0.80071220294873    -0.03058557400639     0.00000000000000     0.00000000000000
    2    -0.80071220294873    -0.77753055716731    -0.02869084758343     0.00000000000000     0.00000000000000
    3    -0.03058557400639    -0.02869084758343    -1.13494370277091     0.00000000000000     0.00000000000000
    4     0.00000000000000     0.00000000000000     0.00000000000000    -1.12388519517520     0.00000000000000
    5     0.00000000000000     0.00000000000000     0.00000000000000     0.00000000000000    -1.12388519517520
    6    -0.00623375394698    -0.09830656450507    -0.00695938192131     0.00000000000000     0.00000000000000
    7    -0.09830656450507    -0.22303384568720    -0.07343134049930     0.00000000000000     0.00000000000000
    8     0.00695938192131     0.07343134049930     0.00689887118163     0.00000000000000     0.00000000000000
    9     0.00000000000000     0.00000000000000     0.00000000000000    -0.00046579863104     0.00000000000000
   10     0.00000000000000     0.00000000000000     0.00000000000000     0.00000000000000    -0.00046579863104

                 6                   7                   8                   9                  10

    1    -0.00623375394698    -0.09830656450507     0.00695938192131     0.00000000000000     0.00000000000000
    2    -0.09830656450507    -0.22303384568720     0.07343134049930     0.00000000000000     0.00000000000000
    3    -0.00695938192131    -0.07343134049930     0.00689887118163     0.00000000000000     0.00000000000000
    4     0.00000000000000     0.00000000000000     0.00000000000000    -0.00046579863104     0.00000000000000
    5     0.00000000000000     0.00000000000000     0.00000000000000     0.00000000000000    -0.00046579863104
    6    -1.59835228805460    -0.80071220294873     0.03058557400639     0.00000000000000     0.00000000000000
    7    -0.80071220294873    -0.77753055716731     0.02869084758343     0.00000000000000     0.00000000000000
    8     0.03058557400639     0.02869084758343    -1.13494370277091     0.00000000000000     0.00000000000000
    9     0.00000000000000     0.00000000000000     0.00000000000000    -1.12388519517520     0.00000000000000
   10     0.00000000000000     0.00000000000000     0.00000000000000     0.00000000000000    -1.12388519517520



  ## One Electron Ints (Symmetry 0) ##
  Irrep: 1 Size: 10 x 10

                 1                   2                   3                   4                   5

    1    -0.62889506094217    -0.59947807188334    -0.03058557400639     0.00000000000000     0.00000000000000
    2    -0.59947807188334    -0.59453055716731    -0.02869084758343     0.00000000000000     0.00000000000000
    3    -0.03058557400639    -0.02869084758343     0.68255629722909     0.00000000000000     0.00000000000000
    4     0.00000000000000     0.00000000000000     0.00000000000000     0.69361480482480     0.00000000000000
    5     0.00000000000000     0.00000000000000     0.00000000000000     0.00000000000000     0.69361480482480
    6    -0.01624081315474    -0.10737578182605    -0.02086603900647     0.00000000000000     0.00000000000000
    7    -0.10737578182605    -0.21450120645734    -0.06784363435714     0.00000000000000     0.00000000000000
    8     0.02086603900647     0.06784363435714     0.02932136733289     0.00000000000000     0.00000000000000
    9     0.00000000000000     0.00000000000000     0.00000000000000    -0.00251365081584     0.00000000000000
   10     0.00000000000000     0.00000000000000     0.00000000000000     0.00000000000000    -0.00251365081584

                 6                   7                   8                   9                  10

    1    -0.01624081315474    -0.10737578182605     0.02086603900647     0.00000000000000     0.00000000000000
    2    -0.10737578182605    -0.21450120645734     0.06784363435714     0.00000000000000     0.00000000000000
    3    -0.02086603900647    -0.06784363435714     0.02932136733289     0.00000000000000     0.00000000000000
    4     0.00000000000000     0.00000000000000     0.00000000000000    -0.00251365081584     0.00000000000000
    5     0.00000000000000     0.00000000000000     0.00000000000000     0.00000000000000    -0.00251365081584
    6    -0.62889506094217    -0.59947807188334     0.03058557400639     0.00000000000000     0.00000000000000
    7    -0.59947807188334    -0.59453055716731     0.02869084758343     0.00000000000000     0.00000000000000
    8     0.03058557400639     0.02869084758343     0.68255629722909     0.00000000000000     0.00000000000000
    9     0.00000000000000     0.00000000000000     0.00000000000000     0.69361480482480     0.00000000000000
   10     0.00000000000000     0.00000000000000     0.00000000000000     0.00000000000000     0.69361480482480




	There are 0 unique integrals

  ## Fock (Symmetry 0) ##
  Irrep: 1 Size: 10 x 10

                 1                   2                   3                   4                   5

    1    -0.39426624668425    -0.35617020220805    -0.03301605250541     0.00000000000000     0.00000000000000
    2    -0.35617020220805    -0.31288651954331     0.00611923550047    -0.00000000000000     0.00000000000000
    3    -0.03301605250541     0.00611923550047     0.69320114235470    -0.00000000000000     0.00000000000000
    4     0.00000000000000    -0.00000000000000    -0.00000000000000     0.69361644968762     0.00000000000000
    5     0.00000000000000     0.00000000000000     0.00000000000000     0.00000000000000     0.69361644968763
    6     0.00880234564399     0.00273944884666     0.03898387245861     0.00000000000000     0.00000000000000
    7     0.00273944884666    -0.08464032369008    -0.10385773482510     0.00000000000000     0.00000000000000
    8    -0.03898387245861     0.10385773482510     0.03634991703149    -0.00000000000000     0.00000000000000
    9    -0.00000000000000     0.00000000000000     0.00000000000000    -0.00290622348519     0.00000000000000
   10     0.00000000000000     0.00000000000000     0.00000000000000     0.00000000000000    -0.00290622348519

                 6                   7                   8                   9                  10

    1     0.00880234564399     0.00273944884666    -0.03898387245861    -0.00000000000000     0.00000000000000
    2     0.00273944884666    -0.08464032369008     0.10385773482510     0.00000000000000     0.00000000000000
    3     0.03898387245861    -0.10385773482510     0.03634991703149     0.00000000000000     0.00000000000000
    4     0.00000000000000     0.00000000000000    -0.00000000000000    -0.00290622348519     0.00000000000000
    5     0.00000000000000     0.00000000000000     0.00000000000000     0.00000000000000    -0.00290622348519
    6    -0.39426624668425    -0.35617020220805     0.03301605250541    -0.00000000000000     0.00000000000000
    7    -0.35617020220805    -0.31288651954331    -0.00611923550047     0.00000000000000     0.00000000000000
    8     0.03301605250541    -0.00611923550047     0.69320114235471     0.00000000000000     0.00000000000000
    9    -0.00000000000000     0.00000000000000     0.00000000000000     0.69361644968763     0.00000000000000
   10     0.00000000000000     0.00000000000000     0.00000000000000     0.00000000000000     0.69361644968763



  ## C (Symmetry 0) ##
  Irrep: 1 Size: 10 x 10

                 1                   2                   3                   4                   5

    1     0.92938456426897     0.87993491225310     0.03921525554098     0.02156207548546    -0.04022266939908
    2    -1.01319079264882    -0.84819040184085    -0.00876482423687    -0.08085666650550     0.16052242370329
    3    -0.51799699279060     0.48154495153941     0.07243065717216    -0.02219661337100     0.04063399710642
    4    -0.43103367152574     0.54527375452149    -0.12994855430476     0.00000000000000     0.00020010400006
    5     0.02886480701855    -0.07408929167388     0.70242937564224     0.00000000000000     0.00000000000000
    6    -0.04697695464325    -0.01396534983010     0.00211103750029    -0.91217892679870     0.37391267632318
    7     0.18320157005862     0.10007879235734    -0.00357512798864     0.38387646200062    -0.94917842050249
    8    -0.04744836635417    -0.03618294795177    -0.00019450829197    -0.71255464870197     0.00996378567741
    9     0.00012197811387    -0.00015430688717     0.00003677410978     0.00000000000000    -0.70710686612762
   10    -0.07599675725201     0.10559320773550     0.69484098566320    -0.00000000000000     0.00000000000000

                 6                   7                   8                   9                  10

    1     0.34203379775724     0.41709069560555    -0.04530346173358    -0.01593017850770    -0.04022266939908
    2     0.47780084294011     0.32674099341499     0.02421975343158     0.00041132770735     0.16052242370329
    3    -0.50234564549600     0.49387852798313    -0.07226842255027    -0.01529564062215     0.04063399710642
    4     0.43103367152574    -0.54527375452149    -0.12994855430476     0.00000000000000    -0.00020010400006
    5     0.02882179903058    -0.07402953994337    -0.70282275394239    -0.00000000000000     0.00000000000000
    6     0.01620575404427     0.03582389532884    -0.00145611478591    -0.90603054675794     0.37391267632318
    7    -0.06895080287393    -0.09862234873235     0.00096143319859     0.36394889064573    -0.94917842050249
    8     0.01638046550459     0.01411545526076     0.00085612842008     0.70640626866147     0.00996378567741
    9    -0.00012197811387     0.00015430688717     0.00003677410978     0.00000000000000     0.70710686612762
   10     0.07598043253339    -0.10555129162337     0.69523865762156     0.00000000000000     0.00000000000000




 In Bisection function HOMO = -0.748  LUMO =  0.754

 0.00304 = (-0.74805 + 0.75413)/2.0
 sum -  nocc_ = 2.08074279
 On Iteration in Bisection 0
 a: 2.08074  b:-0.22969

 -0.37250 = (-0.74805 + 0.00304)/2.0
 sum -  nocc_ = 0.99766397
 On Iteration in Bisection 1
 a: 0.99766  b:-0.22969

 -0.56028 = (-0.74805 + -0.37250)/2.0
 sum -  nocc_ = 0.82914139
 On Iteration in Bisection 2
 a: 0.82914  b:-0.22969

 -0.65416 = (-0.74805 + -0.56028)/2.0
 sum -  nocc_ = 0.43496356
 On Iteration in Bisection 3
 a: 0.43496  b:-0.22969

 -0.70111 = (-0.74805 + -0.65416)/2.0
 sum -  nocc_ = 0.11465028
 On Iteration in Bisection 4
 a: 0.11465  b:-0.22969

 -0.72458 = (-0.74805 + -0.70111)/2.0
 sum -  nocc_ = -0.05916225
 On Iteration in Bisection 5
 a: -0.05916  b:-0.22969

 -0.71284 = (-0.72458 + -0.70111)/2.0
 sum -  nocc_ = 0.02793951
 On Iteration in Bisection 6
 a: 0.02794  b:-0.05916

 -0.71871 = (-0.72458 + -0.71284)/2.0
 sum -  nocc_ = -0.01563913
 On Iteration in Bisection 7
 a: -0.01564  b:-0.05916

 -0.71578 = (-0.71871 + -0.71284)/2.0
 sum -  nocc_ = 0.00615286
 On Iteration in Bisection 8
 a: 0.00615  b:-0.01564

 -0.71724 = (-0.71871 + -0.71578)/2.0
 sum -  nocc_ = -0.00474367
 On Iteration in Bisection 9
 a: -0.00474  b:-0.01564

 -0.71651 = (-0.71724 + -0.71578)/2.0
 sum -  nocc_ = 0.00070461
 On Iteration in Bisection 10
 a: 0.00070  b:-0.00474

 -0.71688 = (-0.71724 + -0.71651)/2.0
 sum -  nocc_ = -0.00201954
 On Iteration in Bisection 11
 a: -0.00202  b:-0.00474

 -0.71669 = (-0.71688 + -0.71651)/2.0
 sum -  nocc_ = -0.00065747
 On Iteration in Bisection 12
 a: -0.00066  b:-0.00202

 -0.71660 = (-0.71669 + -0.71651)/2.0
 sum -  nocc_ = 0.00002357
 On Iteration in Bisection 13
 a: 0.00002  b:-0.00066

 -0.71665 = (-0.71669 + -0.71660)/2.0
 sum -  nocc_ = -0.00031695
 On Iteration in Bisection 14
 a: -0.00032  b:-0.00066

 -0.71662 = (-0.71665 + -0.71660)/2.0
 sum -  nocc_ = -0.00014669
 On Iteration in Bisection 15
 a: -0.00015  b:-0.00032

 -0.71661 = (-0.71662 + -0.71660)/2.0
 sum -  nocc_ = -0.00006156
 On Iteration in Bisection 16
 a: -0.00006  b:-0.00015

 -0.71661 = (-0.71661 + -0.71660)/2.0
 sum -  nocc_ = -0.00001899
 On Iteration in Bisection 17
 a: -0.00002  b:-0.00006

 -0.71660 = (-0.71661 + -0.71660)/2.0
 sum -  nocc_ = 0.00000229
 On Iteration in Bisection 18
 a: 0.00000  b:-0.00002

 -0.71661 = (-0.71661 + -0.71660)/2.0
 sum -  nocc_ = -0.00000835
 On Iteration in Bisection 19
 a: -0.00001  b:-0.00002

 -0.71660 = (-0.71661 + -0.71660)/2.0
 sum -  nocc_ = -0.00000303
 On Iteration in Bisection 20
 a: -0.00000  b:-0.00001

 -0.71660 = (-0.71660 + -0.71660)/2.0
 sum -  nocc_ = -0.00000037
 On Iteration in Bisection 21
 a: -0.00000  b:-0.00000

 -0.71660 = (-0.71660 + -0.71660)/2.0
 sum -  nocc_ = 0.00000096
 On Iteration in Bisection 22
 a: 0.00000  b:-0.00000

 -0.71660 = (-0.71660 + -0.71660)/2.0
 sum -  nocc_ = 0.00000029
 On Iteration in Bisection 23
 a: 0.00000  b:-0.00000

 -0.71660 = (-0.71660 + -0.71660)/2.0
 sum -  nocc_ = -0.00000004
 On Iteration in Bisection 24
 a: -0.00000  b:-0.00000

 -0.71660 = (-0.71660 + -0.71660)/2.0
 sum -  nocc_ = 0.00000013
 On Iteration in Bisection 25
 a: 0.00000  b:-0.00000

 -0.71660 = (-0.71660 + -0.71660)/2.0
 sum -  nocc_ = 0.00000004
 On Iteration in Bisection 26
 a: 0.00000  b:-0.00000

 -0.71660 = (-0.71660 + -0.71660)/2.0
 sum -  nocc_ = 0.00000000
 ef = -0.71660 sum = 1.00000 

 Iter: 0  T:    20000.000  val:-0.716604  sumni 0.00000
 ne = 1.0000

Nuc Replusion =       0.220490503579
 1st iteration =       0.688200236374
 In Bisection function HOMO = -0.287  LUMO =  1.876

 0.79454 = (-0.28708 + 1.87617)/2.0
 sum -  nocc_ = 2.40316862
 On Iteration in Bisection 0
 a: 2.40317  b:-0.49970

 0.25373 = (-0.28708 + 0.79454)/2.0
 sum -  nocc_ = 0.67000738
 On Iteration in Bisection 1
 a: 0.67001  b:-0.49970

 -0.01667 = (-0.28708 + 0.25373)/2.0
 sum -  nocc_ = 0.00749147
 On Iteration in Bisection 2
 a: 0.00749  b:-0.49970

 -0.15188 = (-0.28708 + -0.01667)/2.0
 sum -  nocc_ = -0.10319858
 On Iteration in Bisection 3
 a: -0.10320  b:-0.49970

 -0.08427 = (-0.15188 + -0.01667)/2.0
 sum -  nocc_ = -0.03166917
 On Iteration in Bisection 4
 a: -0.03167  b:-0.10320

 -0.05047 = (-0.08427 + -0.01667)/2.0
 sum -  nocc_ = -0.01071348
 On Iteration in Bisection 5
 a: -0.01071  b:-0.03167

 -0.03357 = (-0.05047 + -0.01667)/2.0
 sum -  nocc_ = -0.00156369
 On Iteration in Bisection 6
 a: -0.00156  b:-0.01071

 -0.02512 = (-0.03357 + -0.01667)/2.0
 sum -  nocc_ = 0.00293943
 On Iteration in Bisection 7
 a: 0.00294  b:-0.00156

 -0.02935 = (-0.03357 + -0.02512)/2.0
 sum -  nocc_ = 0.00068630
 On Iteration in Bisection 8
 a: 0.00069  b:-0.00156

 -0.03146 = (-0.03357 + -0.02935)/2.0
 sum -  nocc_ = -0.00043852
 On Iteration in Bisection 9
 a: -0.00044  b:-0.00156

 -0.03040 = (-0.03146 + -0.02935)/2.0
 sum -  nocc_ = 0.00012386
 On Iteration in Bisection 10
 a: 0.00012  b:-0.00044

 -0.03093 = (-0.03146 + -0.03040)/2.0
 sum -  nocc_ = -0.00015733
 On Iteration in Bisection 11
 a: -0.00016  b:-0.00044

 -0.03067 = (-0.03093 + -0.03040)/2.0
 sum -  nocc_ = -0.00001674
 On Iteration in Bisection 12
 a: -0.00002  b:-0.00016

 -0.03054 = (-0.03067 + -0.03040)/2.0
 sum -  nocc_ = 0.00005356
 On Iteration in Bisection 13
 a: 0.00005  b:-0.00002

 -0.03060 = (-0.03067 + -0.03054)/2.0
 sum -  nocc_ = 0.00001841
 On Iteration in Bisection 14
 a: 0.00002  b:-0.00002

 -0.03064 = (-0.03067 + -0.03060)/2.0
 sum -  nocc_ = 0.00000084
 On Iteration in Bisection 15
 a: 0.00000  b:-0.00002

 -0.03065 = (-0.03067 + -0.03064)/2.0
 sum -  nocc_ = -0.00000795
 On Iteration in Bisection 16
 a: -0.00001  b:-0.00002

 -0.03064 = (-0.03065 + -0.03064)/2.0
 sum -  nocc_ = -0.00000356
 On Iteration in Bisection 17
 a: -0.00000  b:-0.00001

 -0.03064 = (-0.03064 + -0.03064)/2.0
 sum -  nocc_ = -0.00000136
 On Iteration in Bisection 18
 a: -0.00000  b:-0.00000

 -0.03064 = (-0.03064 + -0.03064)/2.0
 sum -  nocc_ = -0.00000026
 On Iteration in Bisection 19
 a: -0.00000  b:-0.00000

 -0.03064 = (-0.03064 + -0.03064)/2.0
 sum -  nocc_ = 0.00000029
 On Iteration in Bisection 20
 a: 0.00000  b:-0.00000

 -0.03064 = (-0.03064 + -0.03064)/2.0
 sum -  nocc_ = 0.00000001
 On Iteration in Bisection 21
 a: 0.00000  b:-0.00000

 -0.03064 = (-0.03064 + -0.03064)/2.0
 sum -  nocc_ = -0.00000012
 On Iteration in Bisection 22
 a: -0.00000  b:-0.00000

 -0.03064 = (-0.03064 + -0.03064)/2.0
 sum -  nocc_ = -0.00000006
 On Iteration in Bisection 23
 a: -0.00000  b:-0.00000

 -0.03064 = (-0.03064 + -0.03064)/2.0
 sum -  nocc_ = -0.00000002
 On Iteration in Bisection 24
 a: -0.00000  b:-0.00000

 -0.03064 = (-0.03064 + -0.03064)/2.0
 sum -  nocc_ = -0.00000000
 ef = -0.03064 sum = 1.00000 

 Iter: 0  T:    20000.000  val:-0.030637  sumni 0.00000
 ne = 1.0000

 iter:1  failiter:1  energy:     -0.992123038242  total:     -0.771632534663  error:     -0.117091839136
 In Bisection function HOMO = -0.295  LUMO =  1.882

 0.79344 = (-0.29515 + 1.88203)/2.0
 sum -  nocc_ = 2.16832503
 On Iteration in Bisection 0
 a: 2.16833  b:-0.44497

 0.24914 = (-0.29515 + 0.79344)/2.0
 sum -  nocc_ = 1.06717447
 On Iteration in Bisection 1
 a: 1.06717  b:-0.44497

 -0.02300 = (-0.29515 + 0.24914)/2.0
 sum -  nocc_ = 0.79814045
 On Iteration in Bisection 2
 a: 0.79814  b:-0.44497

 -0.15908 = (-0.29515 + -0.02300)/2.0
 sum -  nocc_ = 0.22855985
 On Iteration in Bisection 3
 a: 0.22856  b:-0.44497

 -0.22711 = (-0.29515 + -0.15908)/2.0
 sum -  nocc_ = -0.10892613
 On Iteration in Bisection 4
 a: -0.10893  b:-0.44497

 -0.19309 = (-0.22711 + -0.15908)/2.0
 sum -  nocc_ = 0.05947302
 On Iteration in Bisection 5
 a: 0.05947  b:-0.10893

 -0.21010 = (-0.22711 + -0.19309)/2.0
 sum -  nocc_ = -0.02467930
 On Iteration in Bisection 6
 a: -0.02468  b:-0.10893

 -0.20160 = (-0.21010 + -0.19309)/2.0
 sum -  nocc_ = 0.01738710
 On Iteration in Bisection 7
 a: 0.01739  b:-0.02468

 -0.20585 = (-0.21010 + -0.20160)/2.0
 sum -  nocc_ = -0.00364573
 On Iteration in Bisection 8
 a: -0.00365  b:-0.02468

 -0.20373 = (-0.20585 + -0.20160)/2.0
 sum -  nocc_ = 0.00687042
 On Iteration in Bisection 9
 a: 0.00687  b:-0.00365

 -0.20479 = (-0.20585 + -0.20373)/2.0
 sum -  nocc_ = 0.00161233
 On Iteration in Bisection 10
 a: 0.00161  b:-0.00365

 -0.20532 = (-0.20585 + -0.20479)/2.0
 sum -  nocc_ = -0.00101670
 On Iteration in Bisection 11
 a: -0.00102  b:-0.00365

 -0.20505 = (-0.20532 + -0.20479)/2.0
 sum -  nocc_ = 0.00029781
 On Iteration in Bisection 12
 a: 0.00030  b:-0.00102

 -0.20519 = (-0.20532 + -0.20505)/2.0
 sum -  nocc_ = -0.00035944
 On Iteration in Bisection 13
 a: -0.00036  b:-0.00102

 -0.20512 = (-0.20519 + -0.20505)/2.0
 sum -  nocc_ = -0.00003082
 On Iteration in Bisection 14
 a: -0.00003  b:-0.00036

 -0.20509 = (-0.20512 + -0.20505)/2.0
 sum -  nocc_ = 0.00013350
 On Iteration in Bisection 15
 a: 0.00013  b:-0.00003

 -0.20510 = (-0.20512 + -0.20509)/2.0
 sum -  nocc_ = 0.00005134
 On Iteration in Bisection 16
 a: 0.00005  b:-0.00003

 -0.20511 = (-0.20512 + -0.20510)/2.0
 sum -  nocc_ = 0.00001026
 On Iteration in Bisection 17
 a: 0.00001  b:-0.00003

 -0.20512 = (-0.20512 + -0.20511)/2.0
 sum -  nocc_ = -0.00001028
 On Iteration in Bisection 18
 a: -0.00001  b:-0.00003

 -0.20511 = (-0.20512 + -0.20511)/2.0
 sum -  nocc_ = -0.00000001
 ef = -0.20511 sum = 1.00000 

 Iter: 1  T:    20000.000  val:-0.205114  sumni 0.00000
 ne = 1.0000

 iter:2  failiter:2  energy:     -0.978403029674  total:     -0.757912526094  error:      0.013720008568
 In Bisection function HOMO = -0.287  LUMO =  1.727

 0.72042 = (-0.28650 + 1.72734)/2.0
 sum -  nocc_ = 2.18269945
 On Iteration in Bisection 0
 a: 2.18270  b:-0.42615

 0.21696 = (-0.28650 + 0.72042)/2.0
 sum -  nocc_ = 1.00512359
 On Iteration in Bisection 1
 a: 1.00512  b:-0.42615

 -0.03477 = (-0.28650 + 0.21696)/2.0
 sum -  nocc_ = 0.79108799
 On Iteration in Bisection 2
 a: 0.79109  b:-0.42615

 -0.16064 = (-0.28650 + -0.03477)/2.0
 sum -  nocc_ = 0.24729336
 On Iteration in Bisection 3
 a: 0.24729  b:-0.42615

 -0.22357 = (-0.28650 + -0.16064)/2.0
 sum -  nocc_ = -0.09296139
 On Iteration in Bisection 4
 a: -0.09296  b:-0.42615

 -0.19210 = (-0.22357 + -0.16064)/2.0
 sum -  nocc_ = 0.07761338
 On Iteration in Bisection 5
 a: 0.07761  b:-0.09296

 -0.20784 = (-0.22357 + -0.19210)/2.0
 sum -  nocc_ = -0.00768232
 On Iteration in Bisection 6
 a: -0.00768  b:-0.09296

 -0.19997 = (-0.20784 + -0.19210)/2.0
 sum -  nocc_ = 0.03497408
 On Iteration in Bisection 7
 a: 0.03497  b:-0.00768

 -0.20390 = (-0.20784 + -0.19997)/2.0
 sum -  nocc_ = 0.01364666
 On Iteration in Bisection 8
 a: 0.01365  b:-0.00768

 -0.20587 = (-0.20784 + -0.20390)/2.0
 sum -  nocc_ = 0.00298221
 On Iteration in Bisection 9
 a: 0.00298  b:-0.00768

 -0.20685 = (-0.20784 + -0.20587)/2.0
 sum -  nocc_ = -0.00235007
 On Iteration in Bisection 10
 a: -0.00235  b:-0.00768

 -0.20636 = (-0.20685 + -0.20587)/2.0
 sum -  nocc_ = 0.00031607
 On Iteration in Bisection 11
 a: 0.00032  b:-0.00235

 -0.20661 = (-0.20685 + -0.20636)/2.0
 sum -  nocc_ = -0.00101700
 On Iteration in Bisection 12
 a: -0.00102  b:-0.00235

 -0.20649 = (-0.20661 + -0.20636)/2.0
 sum -  nocc_ = -0.00035047
 On Iteration in Bisection 13
 a: -0.00035  b:-0.00102

 -0.20642 = (-0.20649 + -0.20636)/2.0
 sum -  nocc_ = -0.00001720
 On Iteration in Bisection 14
 a: -0.00002  b:-0.00035

 -0.20639 = (-0.20642 + -0.20636)/2.0
 sum -  nocc_ = 0.00014943
 On Iteration in Bisection 15
 a: 0.00015  b:-0.00002

 -0.20641 = (-0.20642 + -0.20639)/2.0
 sum -  nocc_ = 0.00006612
 On Iteration in Bisection 16
 a: 0.00007  b:-0.00002

 -0.20642 = (-0.20642 + -0.20641)/2.0
 sum -  nocc_ = 0.00002446
 On Iteration in Bisection 17
 a: 0.00002  b:-0.00002

 -0.20642 = (-0.20642 + -0.20642)/2.0
 sum -  nocc_ = 0.00000363
 On Iteration in Bisection 18
 a: 0.00000  b:-0.00002

 -0.20642 = (-0.20642 + -0.20642)/2.0
 sum -  nocc_ = -0.00000678
 On Iteration in Bisection 19
 a: -0.00001  b:-0.00002

 -0.20642 = (-0.20642 + -0.20642)/2.0
 sum -  nocc_ = -0.00000158
 On Iteration in Bisection 20
 a: -0.00000  b:-0.00001

 -0.20642 = (-0.20642 + -0.20642)/2.0
 sum -  nocc_ = 0.00000103
 On Iteration in Bisection 21
 a: 0.00000  b:-0.00000

 -0.20642 = (-0.20642 + -0.20642)/2.0
 sum -  nocc_ = -0.00000028
 On Iteration in Bisection 22
 a: -0.00000  b:-0.00000

 -0.20642 = (-0.20642 + -0.20642)/2.0
 sum -  nocc_ = 0.00000038
 On Iteration in Bisection 23
 a: 0.00000  b:-0.00000

 -0.20642 = (-0.20642 + -0.20642)/2.0
 sum -  nocc_ = 0.00000005
 On Iteration in Bisection 24
 a: 0.00000  b:-0.00000

 -0.20642 = (-0.20642 + -0.20642)/2.0
 sum -  nocc_ = -0.00000011
 On Iteration in Bisection 25
 a: -0.00000  b:-0.00000

 -0.20642 = (-0.20642 + -0.20642)/2.0
 sum -  nocc_ = -0.00000003
 On Iteration in Bisection 26
 a: -0.00000  b:-0.00000

 -0.20642 = (-0.20642 + -0.20642)/2.0
 sum -  nocc_ = 0.00000001
 ef = -0.20642 sum = 1.00000 

 Iter: 2  T:    20000.000  val:-0.206421  sumni 0.00000
 ne = 1.0000

 iter:3  failiter:3  energy:     -0.973388899811  total:     -0.752898396232  error:      0.005014129862
 In Bisection function HOMO = -0.299  LUMO =  1.636

 0.66855 = (-0.29854 + 1.63564)/2.0
 sum -  nocc_ = 2.08778396
 On Iteration in Bisection 0
 a: 2.08778  b:-0.43685

 0.18501 = (-0.29854 + 0.66855)/2.0
 sum -  nocc_ = 0.99528401
 On Iteration in Bisection 1
 a: 0.99528  b:-0.43685

 -0.05677 = (-0.29854 + 0.18501)/2.0
 sum -  nocc_ = 0.73262515
 On Iteration in Bisection 2
 a: 0.73263  b:-0.43685

 -0.17765 = (-0.29854 + -0.05677)/2.0
 sum -  nocc_ = 0.18341968
 On Iteration in Bisection 3
 a: 0.18342  b:-0.43685

 -0.23810 = (-0.29854 + -0.17765)/2.0
 sum -  nocc_ = -0.12903028
 On Iteration in Bisection 4
 a: -0.12903  b:-0.43685

 -0.20788 = (-0.23810 + -0.17765)/2.0
 sum -  nocc_ = 0.02717929
 On Iteration in Bisection 5
 a: 0.02718  b:-0.12903

 -0.22299 = (-0.23810 + -0.20788)/2.0
 sum -  nocc_ = -0.05090791
 On Iteration in Bisection 6
 a: -0.05091  b:-0.12903

 -0.21543 = (-0.22299 + -0.20788)/2.0
 sum -  nocc_ = -0.01186289
 On Iteration in Bisection 7
 a: -0.01186  b:-0.05091

 -0.21165 = (-0.21543 + -0.20788)/2.0
 sum -  nocc_ = 0.00765795
 On Iteration in Bisection 8
 a: 0.00766  b:-0.01186

 -0.21354 = (-0.21543 + -0.21165)/2.0
 sum -  nocc_ = -0.00210245
 On Iteration in Bisection 9
 a: -0.00210  b:-0.01186

 -0.21260 = (-0.21354 + -0.21165)/2.0
 sum -  nocc_ = 0.00277774
 On Iteration in Bisection 10
 a: 0.00278  b:-0.00210

 -0.21307 = (-0.21354 + -0.21260)/2.0
 sum -  nocc_ = 0.00033764
 On Iteration in Bisection 11
 a: 0.00034  b:-0.00210

 -0.21331 = (-0.21354 + -0.21307)/2.0
 sum -  nocc_ = -0.00088240
 On Iteration in Bisection 12
 a: -0.00088  b:-0.00210

 -0.21319 = (-0.21331 + -0.21307)/2.0
 sum -  nocc_ = -0.00027238
 On Iteration in Bisection 13
 a: -0.00027  b:-0.00088

 -0.21313 = (-0.21319 + -0.21307)/2.0
 sum -  nocc_ = 0.00003263
 On Iteration in Bisection 14
 a: 0.00003  b:-0.00027

 -0.21316 = (-0.21319 + -0.21313)/2.0
 sum -  nocc_ = -0.00011987
 On Iteration in Bisection 15
 a: -0.00012  b:-0.00027

 -0.21314 = (-0.21316 + -0.21313)/2.0
 sum -  nocc_ = -0.00004362
 On Iteration in Bisection 16
 a: -0.00004  b:-0.00012

 -0.21314 = (-0.21314 + -0.21313)/2.0
 sum -  nocc_ = -0.00000549
 On Iteration in Bisection 17
 a: -0.00001  b:-0.00004

 -0.21313 = (-0.21314 + -0.21313)/2.0
 sum -  nocc_ = 0.00001357
 On Iteration in Bisection 18
 a: 0.00001  b:-0.00001

 -0.21313 = (-0.21314 + -0.21313)/2.0
 sum -  nocc_ = 0.00000404
 On Iteration in Bisection 19
 a: 0.00000  b:-0.00001

 -0.21314 = (-0.21314 + -0.21313)/2.0
 sum -  nocc_ = -0.00000073
 On Iteration in Bisection 20
 a: -0.00000  b:-0.00001

 -0.21313 = (-0.21314 + -0.21313)/2.0
 sum -  nocc_ = 0.00000165
 On Iteration in Bisection 21
 a: 0.00000  b:-0.00000

 -0.21314 = (-0.21314 + -0.21313)/2.0
 sum -  nocc_ = 0.00000046
 On Iteration in Bisection 22
 a: 0.00000  b:-0.00000

 -0.21314 = (-0.21314 + -0.21314)/2.0
 sum -  nocc_ = -0.00000013
 On Iteration in Bisection 23
 a: -0.00000  b:-0.00000

 -0.21314 = (-0.21314 + -0.21314)/2.0
 sum -  nocc_ = 0.00000017
 On Iteration in Bisection 24
 a: 0.00000  b:-0.00000

 -0.21314 = (-0.21314 + -0.21314)/2.0
 sum -  nocc_ = 0.00000002
 On Iteration in Bisection 25
 a: 0.00000  b:-0.00000

 -0.21314 = (-0.21314 + -0.21314)/2.0
 sum -  nocc_ = -0.00000006
 On Iteration in Bisection 26
 a: -0.00000  b:-0.00000

 -0.21314 = (-0.21314 + -0.21314)/2.0
 sum -  nocc_ = -0.00000002
 On Iteration in Bisection 27
 a: -0.00000  b:-0.00000

 -0.21314 = (-0.21314 + -0.21314)/2.0
 sum -  nocc_ = -0.00000000
 ef = -0.21314 sum = 1.00000 

 Iter: 3  T:    20000.000  val:-0.213135  sumni 0.00000
 ne = 1.0000

 iter:4  failiter:4  energy:     -0.988088236715  total:     -0.767597733136  error:     -0.014699336904
 In Bisection function HOMO = -0.310  LUMO =  1.581

 0.63580 = (-0.30952 + 1.58111)/2.0
 sum -  nocc_ = 1.91561725
 On Iteration in Bisection 0
 a: 1.91562  b:-0.45166

 0.16314 = (-0.30952 + 0.63580)/2.0
 sum -  nocc_ = 0.98954134
 On Iteration in Bisection 1
 a: 0.98954  b:-0.45166

 -0.07319 = (-0.30952 + 0.16314)/2.0
 sum -  nocc_ = 0.65616817
 On Iteration in Bisection 2
 a: 0.65617  b:-0.45166

 -0.19136 = (-0.30952 + -0.07319)/2.0
 sum -  nocc_ = 0.11307082
 On Iteration in Bisection 3
 a: 0.11307  b:-0.45166

 -0.25044 = (-0.30952 + -0.19136)/2.0
 sum -  nocc_ = -0.16798572
 On Iteration in Bisection 4
 a: -0.16799  b:-0.45166

 -0.22090 = (-0.25044 + -0.19136)/2.0
 sum -  nocc_ = -0.02720834
 On Iteration in Bisection 5
 a: -0.02721  b:-0.16799

 -0.20613 = (-0.22090 + -0.19136)/2.0
 sum -  nocc_ = 0.04282269
 On Iteration in Bisection 6
 a: 0.04282  b:-0.02721

 -0.21351 = (-0.22090 + -0.20613)/2.0
 sum -  nocc_ = 0.00780193
 On Iteration in Bisection 7
 a: 0.00780  b:-0.02721

 -0.21720 = (-0.22090 + -0.21351)/2.0
 sum -  nocc_ = -0.00970157
 On Iteration in Bisection 8
 a: -0.00970  b:-0.02721

 -0.21536 = (-0.21720 + -0.21351)/2.0
 sum -  nocc_ = -0.00094978
 On Iteration in Bisection 9
 a: -0.00095  b:-0.00970

 -0.21443 = (-0.21536 + -0.21351)/2.0
 sum -  nocc_ = 0.00342604
 On Iteration in Bisection 10
 a: 0.00343  b:-0.00095

 -0.21490 = (-0.21536 + -0.21443)/2.0
 sum -  nocc_ = 0.00123812
 On Iteration in Bisection 11
 a: 0.00124  b:-0.00095

 -0.21513 = (-0.21536 + -0.21490)/2.0
 sum -  nocc_ = 0.00014417
 On Iteration in Bisection 12
 a: 0.00014  b:-0.00095

 -0.21524 = (-0.21536 + -0.21513)/2.0
 sum -  nocc_ = -0.00040281
 On Iteration in Bisection 13
 a: -0.00040  b:-0.00095

 -0.21518 = (-0.21524 + -0.21513)/2.0
 sum -  nocc_ = -0.00012932
 On Iteration in Bisection 14
 a: -0.00013  b:-0.00040

 -0.21516 = (-0.21518 + -0.21513)/2.0
 sum -  nocc_ = 0.00000743
 On Iteration in Bisection 15
 a: 0.00001  b:-0.00013

 -0.21517 = (-0.21518 + -0.21516)/2.0
 sum -  nocc_ = -0.00006095
 On Iteration in Bisection 16
 a: -0.00006  b:-0.00013

 -0.21516 = (-0.21517 + -0.21516)/2.0
 sum -  nocc_ = -0.00002676
 On Iteration in Bisection 17
 a: -0.00003  b:-0.00006

 -0.21516 = (-0.21516 + -0.21516)/2.0
 sum -  nocc_ = -0.00000967
 On Iteration in Bisection 18
 a: -0.00001  b:-0.00003

 -0.21516 = (-0.21516 + -0.21516)/2.0
 sum -  nocc_ = -0.00000112
 On Iteration in Bisection 19
 a: -0.00000  b:-0.00001

 -0.21516 = (-0.21516 + -0.21516)/2.0
 sum -  nocc_ = 0.00000315
 On Iteration in Bisection 20
 a: 0.00000  b:-0.00000

 -0.21516 = (-0.21516 + -0.21516)/2.0
 sum -  nocc_ = 0.00000102
 On Iteration in Bisection 21
 a: 0.00000  b:-0.00000

 -0.21516 = (-0.21516 + -0.21516)/2.0
 sum -  nocc_ = -0.00000005
 On Iteration in Bisection 22
 a: -0.00000  b:-0.00000

 -0.21516 = (-0.21516 + -0.21516)/2.0
 sum -  nocc_ = 0.00000048
 On Iteration in Bisection 23
 a: 0.00000  b:-0.00000

 -0.21516 = (-0.21516 + -0.21516)/2.0
 sum -  nocc_ = 0.00000022
 On Iteration in Bisection 24
 a: 0.00000  b:-0.00000

 -0.21516 = (-0.21516 + -0.21516)/2.0
 sum -  nocc_ = 0.00000008
 On Iteration in Bisection 25
 a: 0.00000  b:-0.00000

 -0.21516 = (-0.21516 + -0.21516)/2.0
 sum -  nocc_ = 0.00000002
 On Iteration in Bisection 26
 a: 0.00000  b:-0.00000

 -0.21516 = (-0.21516 + -0.21516)/2.0
 sum -  nocc_ = -0.00000002
 On Iteration in Bisection 27
 a: -0.00000  b:-0.00000

 -0.21516 = (-0.21516 + -0.21516)/2.0
 sum -  nocc_ = -0.00000000
 ef = -0.21516 sum = 1.00000 

 Iter: 4  T:    20000.000  val:-0.215157  sumni 0.00000
 ne = 1.0000

 iter:5  failiter:5  energy:     -1.001359861179  total:     -0.780869357600  error:     -0.013271624464
 In Bisection function HOMO = -0.317  LUMO =  1.556

 0.61946 = (-0.31666 + 1.55558)/2.0
 sum -  nocc_ = 1.79270738
 On Iteration in Bisection 0
 a: 1.79271  b:-0.46004

 0.15140 = (-0.31666 + 0.61946)/2.0
 sum -  nocc_ = 0.98566093
 On Iteration in Bisection 1
 a: 0.98566  b:-0.46004

 -0.08263 = (-0.31666 + 0.15140)/2.0
 sum -  nocc_ = 0.60201157
 On Iteration in Bisection 2
 a: 0.60201  b:-0.46004

 -0.19965 = (-0.31666 + -0.08263)/2.0
 sum -  nocc_ = 0.07275325
 On Iteration in Bisection 3
 a: 0.07275  b:-0.46004

 -0.25815 = (-0.31666 + -0.19965)/2.0
 sum -  nocc_ = -0.18929313
 On Iteration in Bisection 4
 a: -0.18929  b:-0.46004

 -0.22890 = (-0.25815 + -0.19965)/2.0
 sum -  nocc_ = -0.05744139
 On Iteration in Bisection 5
 a: -0.05744  b:-0.18929

 -0.21427 = (-0.22890 + -0.19965)/2.0
 sum -  nocc_ = 0.00762500
 On Iteration in Bisection 6
 a: 0.00763  b:-0.05744

 -0.22159 = (-0.22890 + -0.21427)/2.0
 sum -  nocc_ = -0.02488273
 On Iteration in Bisection 7
 a: -0.02488  b:-0.05744

 -0.21793 = (-0.22159 + -0.21427)/2.0
 sum -  nocc_ = -0.00862664
 On Iteration in Bisection 8
 a: -0.00863  b:-0.02488

 -0.21610 = (-0.21793 + -0.21427)/2.0
 sum -  nocc_ = -0.00050079
 On Iteration in Bisection 9
 a: -0.00050  b:-0.00863

 -0.21519 = (-0.21610 + -0.21427)/2.0
 sum -  nocc_ = 0.00356205
 On Iteration in Bisection 10
 a: 0.00356  b:-0.00050

 -0.21565 = (-0.21610 + -0.21519)/2.0
 sum -  nocc_ = 0.00153063
 On Iteration in Bisection 11
 a: 0.00153  b:-0.00050

 -0.21587 = (-0.21610 + -0.21565)/2.0
 sum -  nocc_ = 0.00051492
 On Iteration in Bisection 12
 a: 0.00051  b:-0.00050

 -0.21599 = (-0.21610 + -0.21587)/2.0
 sum -  nocc_ = 0.00000707
 On Iteration in Bisection 13
 a: 0.00001  b:-0.00050

 -0.21605 = (-0.21610 + -0.21599)/2.0
 sum -  nocc_ = -0.00024686
 On Iteration in Bisection 14
 a: -0.00025  b:-0.00050

 -0.21602 = (-0.21605 + -0.21599)/2.0
 sum -  nocc_ = -0.00011990
 On Iteration in Bisection 15
 a: -0.00012  b:-0.00025

 -0.21600 = (-0.21602 + -0.21599)/2.0
 sum -  nocc_ = -0.00005642
 On Iteration in Bisection 16
 a: -0.00006  b:-0.00012

 -0.21600 = (-0.21600 + -0.21599)/2.0
 sum -  nocc_ = -0.00002467
 On Iteration in Bisection 17
 a: -0.00002  b:-0.00006

 -0.21599 = (-0.21600 + -0.21599)/2.0
 sum -  nocc_ = -0.00000880
 On Iteration in Bisection 18
 a: -0.00001  b:-0.00002

 -0.21599 = (-0.21599 + -0.21599)/2.0
 sum -  nocc_ = -0.00000087
 On Iteration in Bisection 19
 a: -0.00000  b:-0.00001

 -0.21599 = (-0.21599 + -0.21599)/2.0
 sum -  nocc_ = 0.00000310
 On Iteration in Bisection 20
 a: 0.00000  b:-0.00000

 -0.21599 = (-0.21599 + -0.21599)/2.0
 sum -  nocc_ = 0.00000111
 On Iteration in Bisection 21
 a: 0.00000  b:-0.00000

 -0.21599 = (-0.21599 + -0.21599)/2.0
 sum -  nocc_ = 0.00000012
 On Iteration in Bisection 22
 a: 0.00000  b:-0.00000

 -0.21599 = (-0.21599 + -0.21599)/2.0
 sum -  nocc_ = -0.00000037
 On Iteration in Bisection 23
 a: -0.00000  b:-0.00000

 -0.21599 = (-0.21599 + -0.21599)/2.0
 sum -  nocc_ = -0.00000012
 On Iteration in Bisection 24
 a: -0.00000  b:-0.00000

 -0.21599 = (-0.21599 + -0.21599)/2.0
 sum -  nocc_ = -0.00000000
 ef = -0.21599 sum = 1.00000 

 Iter: 5  T:    20000.000  val:-0.215990  sumni 0.00000
 ne = 1.0000

 iter:6  failiter:6  energy:     -1.010135699441  total:     -0.789645195862  error:     -0.008775838262
 In Bisection function HOMO = -0.320  LUMO =  1.546

 0.61297 = (-0.32040 + 1.54634)/2.0
 sum -  nocc_ = 1.74048655
 On Iteration in Bisection 0
 a: 1.74049  b:-0.46405

 0.14629 = (-0.32040 + 0.61297)/2.0
 sum -  nocc_ = 0.98351185
 On Iteration in Bisection 1
 a: 0.98351  b:-0.46405

 -0.08705 = (-0.32040 + 0.14629)/2.0
 sum -  nocc_ = 0.57310887
 On Iteration in Bisection 2
 a: 0.57311  b:-0.46405

 -0.20372 = (-0.32040 + -0.08705)/2.0
 sum -  nocc_ = 0.05370921
 On Iteration in Bisection 3
 a: 0.05371  b:-0.46405

 -0.26206 = (-0.32040 + -0.20372)/2.0
 sum -  nocc_ = -0.19907765
 On Iteration in Bisection 4
 a: -0.19908  b:-0.46405

 -0.23289 = (-0.26206 + -0.20372)/2.0
 sum -  nocc_ = -0.07146121
 On Iteration in Bisection 5
 a: -0.07146  b:-0.19908

 -0.21831 = (-0.23289 + -0.20372)/2.0
 sum -  nocc_ = -0.00883340
 On Iteration in Bisection 6
 a: -0.00883  b:-0.07146

 -0.21102 = (-0.21831 + -0.20372)/2.0
 sum -  nocc_ = 0.02241055
 On Iteration in Bisection 7
 a: 0.02241  b:-0.00883

 -0.21466 = (-0.21831 + -0.21102)/2.0
 sum -  nocc_ = 0.00678648
 On Iteration in Bisection 8
 a: 0.00679  b:-0.00883

 -0.21648 = (-0.21831 + -0.21466)/2.0
 sum -  nocc_ = -0.00102338
 On Iteration in Bisection 9
 a: -0.00102  b:-0.00883

 -0.21557 = (-0.21648 + -0.21466)/2.0
 sum -  nocc_ = 0.00288149
 On Iteration in Bisection 10
 a: 0.00288  b:-0.00102

 -0.21603 = (-0.21648 + -0.21557)/2.0
 sum -  nocc_ = 0.00092905
 On Iteration in Bisection 11
 a: 0.00093  b:-0.00102

 -0.21626 = (-0.21648 + -0.21603)/2.0
 sum -  nocc_ = -0.00004716
 On Iteration in Bisection 12
 a: -0.00005  b:-0.00102

 -0.21614 = (-0.21626 + -0.21603)/2.0
 sum -  nocc_ = 0.00044094
 On Iteration in Bisection 13
 a: 0.00044  b:-0.00005

 -0.21620 = (-0.21626 + -0.21614)/2.0
 sum -  nocc_ = 0.00019689
 On Iteration in Bisection 14
 a: 0.00020  b:-0.00005

 -0.21623 = (-0.21626 + -0.21620)/2.0
 sum -  nocc_ = 0.00007486
 On Iteration in Bisection 15
 a: 0.00007  b:-0.00005

 -0.21624 = (-0.21626 + -0.21623)/2.0
 sum -  nocc_ = 0.00001385
 On Iteration in Bisection 16
 a: 0.00001  b:-0.00005

 -0.21625 = (-0.21626 + -0.21624)/2.0
 sum -  nocc_ = -0.00001666
 On Iteration in Bisection 17
 a: -0.00002  b:-0.00005

 -0.21625 = (-0.21625 + -0.21624)/2.0
 sum -  nocc_ = -0.00000140
 On Iteration in Bisection 18
 a: -0.00000  b:-0.00002

 -0.21624 = (-0.21625 + -0.21624)/2.0
 sum -  nocc_ = 0.00000622
 On Iteration in Bisection 19
 a: 0.00001  b:-0.00000

 -0.21625 = (-0.21625 + -0.21624)/2.0
 sum -  nocc_ = 0.00000241
 On Iteration in Bisection 20
 a: 0.00000  b:-0.00000

 -0.21625 = (-0.21625 + -0.21625)/2.0
 sum -  nocc_ = 0.00000050
 On Iteration in Bisection 21
 a: 0.00000  b:-0.00000

 -0.21625 = (-0.21625 + -0.21625)/2.0
 sum -  nocc_ = -0.00000045
 On Iteration in Bisection 22
 a: -0.00000  b:-0.00000

 -0.21625 = (-0.21625 + -0.21625)/2.0
 sum -  nocc_ = 0.00000003
 On Iteration in Bisection 23
 a: 0.00000  b:-0.00000

 -0.21625 = (-0.21625 + -0.21625)/2.0
 sum -  nocc_ = -0.00000021
 On Iteration in Bisection 24
 a: -0.00000  b:-0.00000

 -0.21625 = (-0.21625 + -0.21625)/2.0
 sum -  nocc_ = -0.00000009
 On Iteration in Bisection 25
 a: -0.00000  b:-0.00000

 -0.21625 = (-0.21625 + -0.21625)/2.0
 sum -  nocc_ = -0.00000003
 On Iteration in Bisection 26
 a: -0.00000  b:-0.00000

 -0.21625 = (-0.21625 + -0.21625)/2.0
 sum -  nocc_ = -0.00000000
 ef = -0.21625 sum = 1.00000 

 Iter: 6  T:    20000.000  val:-0.216246  sumni 0.00000
 ne = 1.0000

 iter:7  failiter:7  energy:     -1.014803818483  total:     -0.794313314904  error:     -0.004668119042
 In Bisection function HOMO = -0.322  LUMO =  1.544

 0.61076 = (-0.32216 + 1.54367)/2.0
 sum -  nocc_ = 1.72262157
 On Iteration in Bisection 0
 a: 1.72262  b:-0.46586

 0.14430 = (-0.32216 + 0.61076)/2.0
 sum -  nocc_ = 0.98251239
 On Iteration in Bisection 1
 a: 0.98251  b:-0.46586

 -0.08893 = (-0.32216 + 0.14430)/2.0
 sum -  nocc_ = 0.55967941
 On Iteration in Bisection 2
 a: 0.55968  b:-0.46586

 -0.20555 = (-0.32216 + -0.08893)/2.0
 sum -  nocc_ = 0.04534277
 On Iteration in Bisection 3
 a: 0.04534  b:-0.46586

 -0.26386 = (-0.32216 + -0.20555)/2.0
 sum -  nocc_ = -0.20330722
 On Iteration in Bisection 4
 a: -0.20331  b:-0.46586

 -0.23470 = (-0.26386 + -0.20555)/2.0
 sum -  nocc_ = -0.07755506
 On Iteration in Bisection 5
 a: -0.07756  b:-0.20331

 -0.22013 = (-0.23470 + -0.20555)/2.0
 sum -  nocc_ = -0.01602284
 On Iteration in Bisection 6
 a: -0.01602  b:-0.07756

 -0.21284 = (-0.22013 + -0.20555)/2.0
 sum -  nocc_ = 0.01464063
 On Iteration in Bisection 7
 a: 0.01464  b:-0.01602

 -0.21648 = (-0.22013 + -0.21284)/2.0
 sum -  nocc_ = -0.00069088
 On Iteration in Bisection 8
 a: -0.00069  b:-0.01602

 -0.21466 = (-0.21648 + -0.21284)/2.0
 sum -  nocc_ = 0.00697429
 On Iteration in Bisection 9
 a: 0.00697  b:-0.00069

 -0.21557 = (-0.21648 + -0.21466)/2.0
 sum -  nocc_ = 0.00314164
 On Iteration in Bisection 10
 a: 0.00314  b:-0.00069

 -0.21603 = (-0.21648 + -0.21557)/2.0
 sum -  nocc_ = 0.00122537
 On Iteration in Bisection 11
 a: 0.00123  b:-0.00069

 -0.21625 = (-0.21648 + -0.21603)/2.0
 sum -  nocc_ = 0.00026725
 On Iteration in Bisection 12
 a: 0.00027  b:-0.00069

 -0.21637 = (-0.21648 + -0.21625)/2.0
 sum -  nocc_ = -0.00021182
 On Iteration in Bisection 13
 a: -0.00021  b:-0.00069

 -0.21631 = (-0.21637 + -0.21625)/2.0
 sum -  nocc_ = 0.00002772
 On Iteration in Bisection 14
 a: 0.00003  b:-0.00021

 -0.21634 = (-0.21637 + -0.21631)/2.0
 sum -  nocc_ = -0.00009205
 On Iteration in Bisection 15
 a: -0.00009  b:-0.00021

 -0.21633 = (-0.21634 + -0.21631)/2.0
 sum -  nocc_ = -0.00003217
 On Iteration in Bisection 16
 a: -0.00003  b:-0.00009

 -0.21632 = (-0.21633 + -0.21631)/2.0
 sum -  nocc_ = -0.00000223
 On Iteration in Bisection 17
 a: -0.00000  b:-0.00003

 -0.21631 = (-0.21632 + -0.21631)/2.0
 sum -  nocc_ = 0.00001274
 On Iteration in Bisection 18
 a: 0.00001  b:-0.00000

 -0.21632 = (-0.21632 + -0.21631)/2.0
 sum -  nocc_ = 0.00000526
 On Iteration in Bisection 19
 a: 0.00001  b:-0.00000

 -0.21632 = (-0.21632 + -0.21632)/2.0
 sum -  nocc_ = 0.00000152
 On Iteration in Bisection 20
 a: 0.00000  b:-0.00000

 -0.21632 = (-0.21632 + -0.21632)/2.0
 sum -  nocc_ = -0.00000035
 On Iteration in Bisection 21
 a: -0.00000  b:-0.00000

 -0.21632 = (-0.21632 + -0.21632)/2.0
 sum -  nocc_ = 0.00000058
 On Iteration in Bisection 22
 a: 0.00000  b:-0.00000

 -0.21632 = (-0.21632 + -0.21632)/2.0
 sum -  nocc_ = 0.00000011
 On Iteration in Bisection 23
 a: 0.00000  b:-0.00000

 -0.21632 = (-0.21632 + -0.21632)/2.0
 sum -  nocc_ = -0.00000012
 On Iteration in Bisection 24
 a: -0.00000  b:-0.00000

 -0.21632 = (-0.21632 + -0.21632)/2.0
 sum -  nocc_ = -0.00000000
 ef = -0.21632 sum = 1.00000 

 Iter: 7  T:    20000.000  val:-0.216317  sumni 0.00000
 ne = 1.0000

 iter:8  failiter:8  energy:     -1.017040459505  total:     -0.796549955926  error:     -0.002236641023
 In Bisection function HOMO = -0.323  LUMO =  1.543

 0.61002 = (-0.32296 + 1.54299)/2.0
 sum -  nocc_ = 1.71670814
 On Iteration in Bisection 0
 a: 1.71671  b:-0.46666

 0.14353 = (-0.32296 + 0.61002)/2.0
 sum -  nocc_ = 0.98207740
 On Iteration in Bisection 1
 a: 0.98208  b:-0.46666

 -0.08972 = (-0.32296 + 0.14353)/2.0
 sum -  nocc_ = 0.55373912
 On Iteration in Bisection 2
 a: 0.55374  b:-0.46666

 -0.20634 = (-0.32296 + -0.08972)/2.0
 sum -  nocc_ = 0.04172751
 On Iteration in Bisection 3
 a: 0.04173  b:-0.46666

 -0.26465 = (-0.32296 + -0.20634)/2.0
 sum -  nocc_ = -0.20511841
 On Iteration in Bisection 4
 a: -0.20512  b:-0.46666

 -0.23549 = (-0.26465 + -0.20634)/2.0
 sum -  nocc_ = -0.08017261
 On Iteration in Bisection 5
 a: -0.08017  b:-0.20512

 -0.22092 = (-0.23549 + -0.20634)/2.0
 sum -  nocc_ = -0.01911984
 On Iteration in Bisection 6
 a: -0.01912  b:-0.08017

 -0.21363 = (-0.22092 + -0.20634)/2.0
 sum -  nocc_ = 0.01128840
 On Iteration in Bisection 7
 a: 0.01129  b:-0.01912

 -0.21727 = (-0.22092 + -0.21363)/2.0
 sum -  nocc_ = -0.00391438
 On Iteration in Bisection 8
 a: -0.00391  b:-0.01912

 -0.21545 = (-0.21727 + -0.21363)/2.0
 sum -  nocc_ = 0.00368669
 On Iteration in Bisection 9
 a: 0.00369  b:-0.00391

 -0.21636 = (-0.21727 + -0.21545)/2.0
 sum -  nocc_ = -0.00011384
 On Iteration in Bisection 10
 a: -0.00011  b:-0.00391

 -0.21591 = (-0.21636 + -0.21545)/2.0
 sum -  nocc_ = 0.00178642
 On Iteration in Bisection 11
 a: 0.00179  b:-0.00011

 -0.21613 = (-0.21636 + -0.21591)/2.0
 sum -  nocc_ = 0.00083629
 On Iteration in Bisection 12
 a: 0.00084  b:-0.00011

 -0.21625 = (-0.21636 + -0.21613)/2.0
 sum -  nocc_ = 0.00036122
 On Iteration in Bisection 13
 a: 0.00036  b:-0.00011

 -0.21630 = (-0.21636 + -0.21625)/2.0
 sum -  nocc_ = 0.00012369
 On Iteration in Bisection 14
 a: 0.00012  b:-0.00011

 -0.21633 = (-0.21636 + -0.21630)/2.0
 sum -  nocc_ = 0.00000492
 On Iteration in Bisection 15
 a: 0.00000  b:-0.00011

 -0.21635 = (-0.21636 + -0.21633)/2.0
 sum -  nocc_ = -0.00005446
 On Iteration in Bisection 16
 a: -0.00005  b:-0.00011

 -0.21634 = (-0.21635 + -0.21633)/2.0
 sum -  nocc_ = -0.00002477
 On Iteration in Bisection 17
 a: -0.00002  b:-0.00005

 -0.21634 = (-0.21634 + -0.21633)/2.0
 sum -  nocc_ = -0.00000992
 On Iteration in Bisection 18
 a: -0.00001  b:-0.00002

 -0.21633 = (-0.21634 + -0.21633)/2.0
 sum -  nocc_ = -0.00000250
 On Iteration in Bisection 19
 a: -0.00000  b:-0.00001

 -0.21633 = (-0.21633 + -0.21633)/2.0
 sum -  nocc_ = 0.00000121
 On Iteration in Bisection 20
 a: 0.00000  b:-0.00000

 -0.21633 = (-0.21633 + -0.21633)/2.0
 sum -  nocc_ = -0.00000064
 On Iteration in Bisection 21
 a: -0.00000  b:-0.00000

 -0.21633 = (-0.21633 + -0.21633)/2.0
 sum -  nocc_ = 0.00000028
 On Iteration in Bisection 22
 a: 0.00000  b:-0.00000

 -0.21633 = (-0.21633 + -0.21633)/2.0
 sum -  nocc_ = -0.00000018
 On Iteration in Bisection 23
 a: -0.00000  b:-0.00000

 -0.21633 = (-0.21633 + -0.21633)/2.0
 sum -  nocc_ = 0.00000005
 On Iteration in Bisection 24
 a: 0.00000  b:-0.00000

 -0.21633 = (-0.21633 + -0.21633)/2.0
 sum -  nocc_ = -0.00000006
 On Iteration in Bisection 25
 a: -0.00000  b:-0.00000

 -0.21633 = (-0.21633 + -0.21633)/2.0
 sum -  nocc_ = -0.00000001
 ef = -0.21633 sum = 1.00000 

 Iter: 8  T:    20000.000  val:-0.216334  sumni 0.00000
 ne = 1.0000

 iter:9  failiter:9  energy:     -1.018056116663  total:     -0.797565613083  error:     -0.001015657157
 In Bisection function HOMO = -0.323  LUMO =  1.543

 0.60976 = (-0.32331 + 1.54283)/2.0
 sum -  nocc_ = 1.71466833
 On Iteration in Bisection 0
 a: 1.71467  b:-0.46702

 0.14322 = (-0.32331 + 0.60976)/2.0
 sum -  nocc_ = 0.98189116
 On Iteration in Bisection 1
 a: 0.98189  b:-0.46702

 -0.09005 = (-0.32331 + 0.14322)/2.0
 sum -  nocc_ = 0.55115323
 On Iteration in Bisection 2
 a: 0.55115  b:-0.46702

 -0.20668 = (-0.32331 + -0.09005)/2.0
 sum -  nocc_ = 0.04016808
 On Iteration in Bisection 3
 a: 0.04017  b:-0.46702

 -0.26500 = (-0.32331 + -0.20668)/2.0
 sum -  nocc_ = -0.20589596
 On Iteration in Bisection 4
 a: -0.20590  b:-0.46702

 -0.23584 = (-0.26500 + -0.20668)/2.0
 sum -  nocc_ = -0.08129812
 On Iteration in Bisection 5
 a: -0.08130  b:-0.20590

 -0.22126 = (-0.23584 + -0.20668)/2.0
 sum -  nocc_ = -0.02045357
 On Iteration in Bisection 6
 a: -0.02045  b:-0.08130

 -0.21397 = (-0.22126 + -0.20668)/2.0
 sum -  nocc_ = 0.00984360
 On Iteration in Bisection 7
 a: 0.00984  b:-0.02045

 -0.21761 = (-0.22126 + -0.21397)/2.0
 sum -  nocc_ = -0.00530314
 On Iteration in Bisection 8
 a: -0.00530  b:-0.02045

 -0.21579 = (-0.21761 + -0.21397)/2.0
 sum -  nocc_ = 0.00227003
 On Iteration in Bisection 9
 a: 0.00227  b:-0.00530

 -0.21670 = (-0.21761 + -0.21579)/2.0
 sum -  nocc_ = -0.00151653
 On Iteration in Bisection 10
 a: -0.00152  b:-0.00530

 -0.21625 = (-0.21670 + -0.21579)/2.0
 sum -  nocc_ = 0.00037675
 On Iteration in Bisection 11
 a: 0.00038  b:-0.00152

 -0.21647 = (-0.21670 + -0.21625)/2.0
 sum -  nocc_ = -0.00056989
 On Iteration in Bisection 12
 a: -0.00057  b:-0.00152

 -0.21636 = (-0.21647 + -0.21625)/2.0
 sum -  nocc_ = -0.00009657
 On Iteration in Bisection 13
 a: -0.00010  b:-0.00057

 -0.21630 = (-0.21636 + -0.21625)/2.0
 sum -  nocc_ = 0.00014009
 On Iteration in Bisection 14
 a: 0.00014  b:-0.00010

 -0.21633 = (-0.21636 + -0.21630)/2.0
 sum -  nocc_ = 0.00002176
 On Iteration in Bisection 15
 a: 0.00002  b:-0.00010

 -0.21635 = (-0.21636 + -0.21633)/2.0
 sum -  nocc_ = -0.00003740
 On Iteration in Bisection 16
 a: -0.00004  b:-0.00010

 -0.21634 = (-0.21635 + -0.21633)/2.0
 sum -  nocc_ = -0.00000782
 On Iteration in Bisection 17
 a: -0.00001  b:-0.00004

 -0.21634 = (-0.21634 + -0.21633)/2.0
 sum -  nocc_ = 0.00000697
 On Iteration in Bisection 18
 a: 0.00001  b:-0.00001

 -0.21634 = (-0.21634 + -0.21634)/2.0
 sum -  nocc_ = -0.00000043
 On Iteration in Bisection 19
 a: -0.00000  b:-0.00001

 -0.21634 = (-0.21634 + -0.21634)/2.0
 sum -  nocc_ = 0.00000327
 On Iteration in Bisection 20
 a: 0.00000  b:-0.00000

 -0.21634 = (-0.21634 + -0.21634)/2.0
 sum -  nocc_ = 0.00000142
 On Iteration in Bisection 21
 a: 0.00000  b:-0.00000

 -0.21634 = (-0.21634 + -0.21634)/2.0
 sum -  nocc_ = 0.00000050
 On Iteration in Bisection 22
 a: 0.00000  b:-0.00000

 -0.21634 = (-0.21634 + -0.21634)/2.0
 sum -  nocc_ = 0.00000004
 On Iteration in Bisection 23
 a: 0.00000  b:-0.00000

 -0.21634 = (-0.21634 + -0.21634)/2.0
 sum -  nocc_ = -0.00000020
 On Iteration in Bisection 24
 a: -0.00000  b:-0.00000

 -0.21634 = (-0.21634 + -0.21634)/2.0
 sum -  nocc_ = -0.00000008
 On Iteration in Bisection 25
 a: -0.00000  b:-0.00000

 -0.21634 = (-0.21634 + -0.21634)/2.0
 sum -  nocc_ = -0.00000002
 On Iteration in Bisection 26
 a: -0.00000  b:-0.00000

 -0.21634 = (-0.21634 + -0.21634)/2.0
 sum -  nocc_ = 0.00000001
 ef = -0.21634 sum = 1.00000 

 Iter: 9  T:    20000.000  val:-0.216337  sumni 0.00000
 ne = 1.0000

 iter:10  failiter:10  energy:     -1.018505786916  total:     -0.798015283337  error:     -0.000449670254
 In Bisection function HOMO = -0.323  LUMO =  1.543

 0.60966 = (-0.32347 + 1.54279)/2.0
 sum -  nocc_ = 1.71392089
 On Iteration in Bisection 0
 a: 1.71392  b:-0.46717

 0.14310 = (-0.32347 + 0.60966)/2.0
 sum -  nocc_ = 0.98181148
 On Iteration in Bisection 1
 a: 0.98181  b:-0.46717

 -0.09018 = (-0.32347 + 0.14310)/2.0
 sum -  nocc_ = 0.55003319
 On Iteration in Bisection 2
 a: 0.55003  b:-0.46717

 -0.20683 = (-0.32347 + -0.09018)/2.0
 sum -  nocc_ = 0.03949488
 On Iteration in Bisection 3
 a: 0.03949  b:-0.46717

 -0.26515 = (-0.32347 + -0.20683)/2.0
 sum -  nocc_ = -0.20623083
 On Iteration in Bisection 4
 a: -0.20623  b:-0.46717

 -0.23599 = (-0.26515 + -0.20683)/2.0
 sum -  nocc_ = -0.08178322
 On Iteration in Bisection 5
 a: -0.08178  b:-0.20623

 -0.22141 = (-0.23599 + -0.20683)/2.0
 sum -  nocc_ = -0.02102887
 On Iteration in Bisection 6
 a: -0.02103  b:-0.08178

 -0.21412 = (-0.22141 + -0.20683)/2.0
 sum -  nocc_ = 0.00922012
 On Iteration in Bisection 7
 a: 0.00922  b:-0.02103

 -0.21776 = (-0.22141 + -0.21412)/2.0
 sum -  nocc_ = -0.00590231
 On Iteration in Bisection 8
 a: -0.00590  b:-0.02103

 -0.21594 = (-0.21776 + -0.21412)/2.0
 sum -  nocc_ = 0.00165876
 On Iteration in Bisection 9
 a: 0.00166  b:-0.00590

 -0.21685 = (-0.21776 + -0.21594)/2.0
 sum -  nocc_ = -0.00212173
 On Iteration in Bisection 10
 a: -0.00212  b:-0.00590

 -0.21639 = (-0.21685 + -0.21594)/2.0
 sum -  nocc_ = -0.00023148
 On Iteration in Bisection 11
 a: -0.00023  b:-0.00212

 -0.21617 = (-0.21639 + -0.21594)/2.0
 sum -  nocc_ = 0.00071364
 On Iteration in Bisection 12
 a: 0.00071  b:-0.00023

 -0.21628 = (-0.21639 + -0.21617)/2.0
 sum -  nocc_ = 0.00024108
 On Iteration in Bisection 13
 a: 0.00024  b:-0.00023

 -0.21634 = (-0.21639 + -0.21628)/2.0
 sum -  nocc_ = 0.00000480
 On Iteration in Bisection 14
 a: 0.00000  b:-0.00023

 -0.21636 = (-0.21639 + -0.21634)/2.0
 sum -  nocc_ = -0.00011334
 On Iteration in Bisection 15
 a: -0.00011  b:-0.00023

 -0.21635 = (-0.21636 + -0.21634)/2.0
 sum -  nocc_ = -0.00005427
 On Iteration in Bisection 16
 a: -0.00005  b:-0.00011

 -0.21634 = (-0.21635 + -0.21634)/2.0
 sum -  nocc_ = -0.00002474
 On Iteration in Bisection 17
 a: -0.00002  b:-0.00005

 -0.21634 = (-0.21634 + -0.21634)/2.0
 sum -  nocc_ = -0.00000997
 On Iteration in Bisection 18
 a: -0.00001  b:-0.00002

 -0.21634 = (-0.21634 + -0.21634)/2.0
 sum -  nocc_ = -0.00000259
 On Iteration in Bisection 19
 a: -0.00000  b:-0.00001

 -0.21634 = (-0.21634 + -0.21634)/2.0
 sum -  nocc_ = 0.00000110
 On Iteration in Bisection 20
 a: 0.00000  b:-0.00000

 -0.21634 = (-0.21634 + -0.21634)/2.0
 sum -  nocc_ = -0.00000074
 On Iteration in Bisection 21
 a: -0.00000  b:-0.00000

 -0.21634 = (-0.21634 + -0.21634)/2.0
 sum -  nocc_ = 0.00000018
 On Iteration in Bisection 22
 a: 0.00000  b:-0.00000

 -0.21634 = (-0.21634 + -0.21634)/2.0
 sum -  nocc_ = -0.00000028
 On Iteration in Bisection 23
 a: -0.00000  b:-0.00000

 -0.21634 = (-0.21634 + -0.21634)/2.0
 sum -  nocc_ = -0.00000005
 On Iteration in Bisection 24
 a: -0.00000  b:-0.00000

 -0.21634 = (-0.21634 + -0.21634)/2.0
 sum -  nocc_ = 0.00000007
 On Iteration in Bisection 25
 a: 0.00000  b:-0.00000

 -0.21634 = (-0.21634 + -0.21634)/2.0
 sum -  nocc_ = 0.00000001
 ef = -0.21634 sum = 1.00000 

 Iter: 10  T:    20000.000  val:-0.216337  sumni 0.00000
 ne = 1.0000

 iter:11  failiter:11  energy:     -1.018702473724  total:     -0.798211970145  error:     -0.000196686808
 In Bisection function HOMO = -0.324  LUMO =  1.543

 0.60963 = (-0.32353 + 1.54279)/2.0
 sum -  nocc_ = 1.71363169
 On Iteration in Bisection 0
 a: 1.71363  b:-0.46724

 0.14305 = (-0.32353 + 0.60963)/2.0
 sum -  nocc_ = 0.98177730
 On Iteration in Bisection 1
 a: 0.98178  b:-0.46724

 -0.09024 = (-0.32353 + 0.14305)/2.0
 sum -  nocc_ = 0.54954878
 On Iteration in Bisection 2
 a: 0.54955  b:-0.46724

 -0.20689 = (-0.32353 + -0.09024)/2.0
 sum -  nocc_ = 0.03920402
 On Iteration in Bisection 3
 a: 0.03920  b:-0.46724

 -0.26521 = (-0.32353 + -0.20689)/2.0
 sum -  nocc_ = -0.20637534
 On Iteration in Bisection 4
 a: -0.20638  b:-0.46724

 -0.23605 = (-0.26521 + -0.20689)/2.0
 sum -  nocc_ = -0.08199263
 On Iteration in Bisection 5
 a: -0.08199  b:-0.20638

 -0.22147 = (-0.23605 + -0.20689)/2.0
 sum -  nocc_ = -0.02127733
 On Iteration in Bisection 6
 a: -0.02128  b:-0.08199

 -0.21418 = (-0.22147 + -0.20689)/2.0
 sum -  nocc_ = 0.00895081
 On Iteration in Bisection 7
 a: 0.00895  b:-0.02128

 -0.21782 = (-0.22147 + -0.21418)/2.0
 sum -  nocc_ = -0.00616110
 On Iteration in Bisection 8
 a: -0.00616  b:-0.02128

 -0.21600 = (-0.21782 + -0.21418)/2.0
 sum -  nocc_ = 0.00139473
 On Iteration in Bisection 9
 a: 0.00139  b:-0.00616

 -0.21691 = (-0.21782 + -0.21600)/2.0
 sum -  nocc_ = -0.00238313
 On Iteration in Bisection 10
 a: -0.00238  b:-0.00616

 -0.21646 = (-0.21691 + -0.21600)/2.0
 sum -  nocc_ = -0.00049420
 On Iteration in Bisection 11
 a: -0.00049  b:-0.00238

 -0.21623 = (-0.21646 + -0.21600)/2.0
 sum -  nocc_ = 0.00045027
 On Iteration in Bisection 12
 a: 0.00045  b:-0.00049

 -0.21634 = (-0.21646 + -0.21623)/2.0
 sum -  nocc_ = -0.00002197
 On Iteration in Bisection 13
 a: -0.00002  b:-0.00049

 -0.21629 = (-0.21634 + -0.21623)/2.0
 sum -  nocc_ = 0.00021415
 On Iteration in Bisection 14
 a: 0.00021  b:-0.00002

 -0.21631 = (-0.21634 + -0.21629)/2.0
 sum -  nocc_ = 0.00009609
 On Iteration in Bisection 15
 a: 0.00010  b:-0.00002

 -0.21633 = (-0.21634 + -0.21631)/2.0
 sum -  nocc_ = 0.00003706
 On Iteration in Bisection 16
 a: 0.00004  b:-0.00002

 -0.21634 = (-0.21634 + -0.21633)/2.0
 sum -  nocc_ = 0.00000755
 On Iteration in Bisection 17
 a: 0.00001  b:-0.00002

 -0.21634 = (-0.21634 + -0.21634)/2.0
 sum -  nocc_ = -0.00000721
 On Iteration in Bisection 18
 a: -0.00001  b:-0.00002

 -0.21634 = (-0.21634 + -0.21634)/2.0
 sum -  nocc_ = 0.00000017
 On Iteration in Bisection 19
 a: 0.00000  b:-0.00001

 -0.21634 = (-0.21634 + -0.21634)/2.0
 sum -  nocc_ = -0.00000352
 On Iteration in Bisection 20
 a: -0.00000  b:-0.00001

 -0.21634 = (-0.21634 + -0.21634)/2.0
 sum -  nocc_ = -0.00000167
 On Iteration in Bisection 21
 a: -0.00000  b:-0.00000

 -0.21634 = (-0.21634 + -0.21634)/2.0
 sum -  nocc_ = -0.00000075
 On Iteration in Bisection 22
 a: -0.00000  b:-0.00000

 -0.21634 = (-0.21634 + -0.21634)/2.0
 sum -  nocc_ = -0.00000029
 On Iteration in Bisection 23
 a: -0.00000  b:-0.00000

 -0.21634 = (-0.21634 + -0.21634)/2.0
 sum -  nocc_ = -0.00000006
 On Iteration in Bisection 24
 a: -0.00000  b:-0.00000

 -0.21634 = (-0.21634 + -0.21634)/2.0
 sum -  nocc_ = 0.00000005
 On Iteration in Bisection 25
 a: 0.00000  b:-0.00000

 -0.21634 = (-0.21634 + -0.21634)/2.0
 sum -  nocc_ = -0.00000000
 ef = -0.21634 sum = 1.00000 

 Iter: 11  T:    20000.000  val:-0.216337  sumni 0.00000
 ne = 1.0000

 iter:12  failiter:12  energy:     -1.018788012433  total:     -0.798297508854  error:     -0.000085538709
 In Bisection function HOMO = -0.324  LUMO =  1.543

 0.60961 = (-0.32356 + 1.54279)/2.0
 sum -  nocc_ = 1.71351512
 On Iteration in Bisection 0
 a: 1.71352  b:-0.46727

 0.14303 = (-0.32356 + 0.60961)/2.0
 sum -  nocc_ = 0.98176260
 On Iteration in Bisection 1
 a: 0.98176  b:-0.46727

 -0.09027 = (-0.32356 + 0.14303)/2.0
 sum -  nocc_ = 0.54933934
 On Iteration in Bisection 2
 a: 0.54934  b:-0.46727

 -0.20691 = (-0.32356 + -0.09027)/2.0
 sum -  nocc_ = 0.03907830
 On Iteration in Bisection 3
 a: 0.03908  b:-0.46727

 -0.26524 = (-0.32356 + -0.20691)/2.0
 sum -  nocc_ = -0.20643777
 On Iteration in Bisection 4
 a: -0.20644  b:-0.46727

 -0.23608 = (-0.26524 + -0.20691)/2.0
 sum -  nocc_ = -0.08208312
 On Iteration in Bisection 5
 a: -0.08208  b:-0.20644

 -0.22150 = (-0.23608 + -0.20691)/2.0
 sum -  nocc_ = -0.02138471
 On Iteration in Bisection 6
 a: -0.02138  b:-0.08208

 -0.21421 = (-0.22150 + -0.20691)/2.0
 sum -  nocc_ = 0.00883440
 On Iteration in Bisection 7
 a: 0.00883  b:-0.02138

 -0.21785 = (-0.22150 + -0.21421)/2.0
 sum -  nocc_ = -0.00627295
 On Iteration in Bisection 8
 a: -0.00627  b:-0.02138

 -0.21603 = (-0.21785 + -0.21421)/2.0
 sum -  nocc_ = 0.00128061
 On Iteration in Bisection 9
 a: 0.00128  b:-0.00627

 -0.21694 = (-0.21785 + -0.21603)/2.0
 sum -  nocc_ = -0.00249611
 On Iteration in Bisection 10
 a: -0.00250  b:-0.00627

 -0.21648 = (-0.21694 + -0.21603)/2.0
 sum -  nocc_ = -0.00060775
 On Iteration in Bisection 11
 a: -0.00061  b:-0.00250

 -0.21626 = (-0.21648 + -0.21603)/2.0
 sum -  nocc_ = 0.00033643
 On Iteration in Bisection 12
 a: 0.00034  b:-0.00061

 -0.21637 = (-0.21648 + -0.21626)/2.0
 sum -  nocc_ = -0.00013566
 On Iteration in Bisection 13
 a: -0.00014  b:-0.00061

 -0.21631 = (-0.21637 + -0.21626)/2.0
 sum -  nocc_ = 0.00010039
 On Iteration in Bisection 14
 a: 0.00010  b:-0.00014

 -0.21634 = (-0.21637 + -0.21631)/2.0
 sum -  nocc_ = -0.00001763
 On Iteration in Bisection 15
 a: -0.00002  b:-0.00014

 -0.21633 = (-0.21634 + -0.21631)/2.0
 sum -  nocc_ = 0.00004138
 On Iteration in Bisection 16
 a: 0.00004  b:-0.00002

 -0.21633 = (-0.21634 + -0.21633)/2.0
 sum -  nocc_ = 0.00001187
 On Iteration in Bisection 17
 a: 0.00001  b:-0.00002

 -0.21634 = (-0.21634 + -0.21633)/2.0
 sum -  nocc_ = -0.00000288
 On Iteration in Bisection 18
 a: -0.00000  b:-0.00002

 -0.21634 = (-0.21634 + -0.21633)/2.0
 sum -  nocc_ = 0.00000450
 On Iteration in Bisection 19
 a: 0.00000  b:-0.00000

 -0.21634 = (-0.21634 + -0.21634)/2.0
 sum -  nocc_ = 0.00000081
 On Iteration in Bisection 20
 a: 0.00000  b:-0.00000

 -0.21634 = (-0.21634 + -0.21634)/2.0
 sum -  nocc_ = -0.00000104
 On Iteration in Bisection 21
 a: -0.00000  b:-0.00000

 -0.21634 = (-0.21634 + -0.21634)/2.0
 sum -  nocc_ = -0.00000011
 On Iteration in Bisection 22
 a: -0.00000  b:-0.00000

 -0.21634 = (-0.21634 + -0.21634)/2.0
 sum -  nocc_ = 0.00000035
 On Iteration in Bisection 23
 a: 0.00000  b:-0.00000

 -0.21634 = (-0.21634 + -0.21634)/2.0
 sum -  nocc_ = 0.00000012
 On Iteration in Bisection 24
 a: 0.00000  b:-0.00000

 -0.21634 = (-0.21634 + -0.21634)/2.0
 sum -  nocc_ = 0.00000000
 ef = -0.21634 sum = 1.00000 

 Iter: 12  T:    20000.000  val:-0.216337  sumni 0.00000
 ne = 1.0000

 iter:13  failiter:13  energy:     -1.018825129201  total:     -0.798334625621  error:     -0.000037116768
 In Bisection function HOMO = -0.324  LUMO =  1.543

 0.60961 = (-0.32357 + 1.54279)/2.0
 sum -  nocc_ = 1.71346682
 On Iteration in Bisection 0
 a: 1.71347  b:-0.46728

 0.14302 = (-0.32357 + 0.60961)/2.0
 sum -  nocc_ = 0.98175626
 On Iteration in Bisection 1
 a: 0.98176  b:-0.46728

 -0.09028 = (-0.32357 + 0.14302)/2.0
 sum -  nocc_ = 0.54924879
 On Iteration in Bisection 2
 a: 0.54925  b:-0.46728

 -0.20693 = (-0.32357 + -0.09028)/2.0
 sum -  nocc_ = 0.03902393
 On Iteration in Bisection 3
 a: 0.03902  b:-0.46728

 -0.26525 = (-0.32357 + -0.20693)/2.0
 sum -  nocc_ = -0.20646475
 On Iteration in Bisection 4
 a: -0.20646  b:-0.46728

 -0.23609 = (-0.26525 + -0.20693)/2.0
 sum -  nocc_ = -0.08212223
 On Iteration in Bisection 5
 a: -0.08212  b:-0.20646

 -0.22151 = (-0.23609 + -0.20693)/2.0
 sum -  nocc_ = -0.02143113
 On Iteration in Bisection 6
 a: -0.02143  b:-0.08212

 -0.21422 = (-0.22151 + -0.20693)/2.0
 sum -  nocc_ = 0.00878408
 On Iteration in Bisection 7
 a: 0.00878  b:-0.02143

 -0.21786 = (-0.22151 + -0.21422)/2.0
 sum -  nocc_ = -0.00632131
[...]
 On Iteration in Bisection 4
 a: -0.20649  b:-0.46729

 -0.23610 = (-0.26526 + -0.20694)/2.0
 sum -  nocc_ = -0.08215204
 On Iteration in Bisection 5
 a: -0.08215  b:-0.20649

 -0.22152 = (-0.23610 + -0.20694)/2.0
 sum -  nocc_ = -0.02146651
 On Iteration in Bisection 6
 a: -0.02147  b:-0.08215

 -0.21423 = (-0.22152 + -0.20694)/2.0
 sum -  nocc_ = 0.00874572
 On Iteration in Bisection 7
 a: 0.00875  b:-0.02147

 -0.21787 = (-0.22152 + -0.21423)/2.0
 sum -  nocc_ = -0.00635816
 On Iteration in Bisection 8
 a: -0.00636  b:-0.02147

 -0.21605 = (-0.21787 + -0.21423)/2.0
 sum -  nocc_ = 0.00119367
 On Iteration in Bisection 9
 a: 0.00119  b:-0.00636

 -0.21696 = (-0.21787 + -0.21605)/2.0
 sum -  nocc_ = -0.00258219
 On Iteration in Bisection 10
 a: -0.00258  b:-0.00636

 -0.21650 = (-0.21696 + -0.21605)/2.0
 sum -  nocc_ = -0.00069425
 On Iteration in Bisection 11
 a: -0.00069  b:-0.00258

 -0.21628 = (-0.21650 + -0.21605)/2.0
 sum -  nocc_ = 0.00024971
 On Iteration in Bisection 12
 a: 0.00025  b:-0.00069

 -0.21639 = (-0.21650 + -0.21628)/2.0
 sum -  nocc_ = -0.00022227
 On Iteration in Bisection 13
 a: -0.00022  b:-0.00069

 -0.21633 = (-0.21639 + -0.21628)/2.0
 sum -  nocc_ = 0.00001372
 On Iteration in Bisection 14
 a: 0.00001  b:-0.00022

 -0.21636 = (-0.21639 + -0.21633)/2.0
 sum -  nocc_ = -0.00010427
 On Iteration in Bisection 15
 a: -0.00010  b:-0.00022

 -0.21635 = (-0.21636 + -0.21633)/2.0
 sum -  nocc_ = -0.00004528
 On Iteration in Bisection 16
 a: -0.00005  b:-0.00010

 -0.21634 = (-0.21635 + -0.21633)/2.0
 sum -  nocc_ = -0.00001578
 On Iteration in Bisection 17
 a: -0.00002  b:-0.00005

 -0.21634 = (-0.21634 + -0.21633)/2.0
 sum -  nocc_ = -0.00000103
 On Iteration in Bisection 18
 a: -0.00000  b:-0.00002

 -0.21634 = (-0.21634 + -0.21633)/2.0
 sum -  nocc_ = 0.00000635
 On Iteration in Bisection 19
 a: 0.00001  b:-0.00000

 -0.21634 = (-0.21634 + -0.21634)/2.0
 sum -  nocc_ = 0.00000266
 On Iteration in Bisection 20
 a: 0.00000  b:-0.00000

 -0.21634 = (-0.21634 + -0.21634)/2.0
 sum -  nocc_ = 0.00000081
 On Iteration in Bisection 21
 a: 0.00000  b:-0.00000

 -0.21634 = (-0.21634 + -0.21634)/2.0
 sum -  nocc_ = -0.00000011
 On Iteration in Bisection 22
 a: -0.00000  b:-0.00000

 -0.21634 = (-0.21634 + -0.21634)/2.0
 sum -  nocc_ = 0.00000035
 On Iteration in Bisection 23
 a: 0.00000  b:-0.00000

 -0.21634 = (-0.21634 + -0.21634)/2.0
 sum -  nocc_ = 0.00000012
 On Iteration in Bisection 24
 a: 0.00000  b:-0.00000

 -0.21634 = (-0.21634 + -0.21634)/2.0
 sum -  nocc_ = 0.00000001
 ef = -0.21634 sum = 1.00000 

 Iter: 29  T:    20000.000  val:-0.216337  sumni 0.00000
 ne = 1.0000

 iter:30  failiter:30  energy:     -1.018853470032  total:     -0.798362966453  error:     -0.000000000042
 In Bisection function HOMO = -0.324  LUMO =  1.543

 0.60960 = (-0.32358 + 1.54279)/2.0
 sum -  nocc_ = 1.71343124
 On Iteration in Bisection 0
 a: 1.71343  b:-0.46729

 0.14301 = (-0.32358 + 0.60960)/2.0
 sum -  nocc_ = 0.98175145
 On Iteration in Bisection 1
 a: 0.98175  b:-0.46729

 -0.09029 = (-0.32358 + 0.14301)/2.0
 sum -  nocc_ = 0.54917979
 On Iteration in Bisection 2
 a: 0.54918  b:-0.46729

 -0.20694 = (-0.32358 + -0.09029)/2.0
 sum -  nocc_ = 0.03898251
 On Iteration in Bisection 3
 a: 0.03898  b:-0.46729

 -0.26526 = (-0.32358 + -0.20694)/2.0
 sum -  nocc_ = -0.20648531
 On Iteration in Bisection 4
 a: -0.20649  b:-0.46729

 -0.23610 = (-0.26526 + -0.20694)/2.0
 sum -  nocc_ = -0.08215204
 On Iteration in Bisection 5
 a: -0.08215  b:-0.20649

 -0.22152 = (-0.23610 + -0.20694)/2.0
 sum -  nocc_ = -0.02146651
 On Iteration in Bisection 6
 a: -0.02147  b:-0.08215

 -0.21423 = (-0.22152 + -0.20694)/2.0
 sum -  nocc_ = 0.00874572
 On Iteration in Bisection 7
 a: 0.00875  b:-0.02147

 -0.21787 = (-0.22152 + -0.21423)/2.0
 sum -  nocc_ = -0.00635816
 On Iteration in Bisection 8
 a: -0.00636  b:-0.02147

 -0.21605 = (-0.21787 + -0.21423)/2.0
 sum -  nocc_ = 0.00119367
 On Iteration in Bisection 9
 a: 0.00119  b:-0.00636

 -0.21696 = (-0.21787 + -0.21605)/2.0
 sum -  nocc_ = -0.00258219
 On Iteration in Bisection 10
 a: -0.00258  b:-0.00636

 -0.21650 = (-0.21696 + -0.21605)/2.0
 sum -  nocc_ = -0.00069425
 On Iteration in Bisection 11
 a: -0.00069  b:-0.00258

 -0.21628 = (-0.21650 + -0.21605)/2.0
 sum -  nocc_ = 0.00024971
 On Iteration in Bisection 12
 a: 0.00025  b:-0.00069

 -0.21639 = (-0.21650 + -0.21628)/2.0
 sum -  nocc_ = -0.00022227
 On Iteration in Bisection 13
 a: -0.00022  b:-0.00069

 -0.21633 = (-0.21639 + -0.21628)/2.0
 sum -  nocc_ = 0.00001372
 On Iteration in Bisection 14
 a: 0.00001  b:-0.00022

 -0.21636 = (-0.21639 + -0.21633)/2.0
 sum -  nocc_ = -0.00010427
 On Iteration in Bisection 15
 a: -0.00010  b:-0.00022

 -0.21635 = (-0.21636 + -0.21633)/2.0
 sum -  nocc_ = -0.00004528
 On Iteration in Bisection 16
 a: -0.00005  b:-0.00010

 -0.21634 = (-0.21635 + -0.21633)/2.0
 sum -  nocc_ = -0.00001578
 On Iteration in Bisection 17
 a: -0.00002  b:-0.00005

 -0.21634 = (-0.21634 + -0.21633)/2.0
 sum -  nocc_ = -0.00000103
 On Iteration in Bisection 18
 a: -0.00000  b:-0.00002

 -0.21634 = (-0.21634 + -0.21633)/2.0
 sum -  nocc_ = 0.00000635
 On Iteration in Bisection 19
 a: 0.00001  b:-0.00000

 -0.21634 = (-0.21634 + -0.21634)/2.0
 sum -  nocc_ = 0.00000266
 On Iteration in Bisection 20
 a: 0.00000  b:-0.00000

 -0.21634 = (-0.21634 + -0.21634)/2.0
 sum -  nocc_ = 0.00000081
 On Iteration in Bisection 21
 a: 0.00000  b:-0.00000

 -0.21634 = (-0.21634 + -0.21634)/2.0
 sum -  nocc_ = -0.00000011
 On Iteration in Bisection 22
 a: -0.00000  b:-0.00000

 -0.21634 = (-0.21634 + -0.21634)/2.0
 sum -  nocc_ = 0.00000035
 On Iteration in Bisection 23
 a: 0.00000  b:-0.00000

 -0.21634 = (-0.21634 + -0.21634)/2.0
 sum -  nocc_ = 0.00000012
 On Iteration in Bisection 24
 a: 0.00000  b:-0.00000

 -0.21634 = (-0.21634 + -0.21634)/2.0
 sum -  nocc_ = 0.00000001
 ef = -0.21634 sum = 1.00000 

 Iter: 30  T:    20000.000  val:-0.216337  sumni 0.00000
 ne = 1.0000

 iter:31  failiter:31  energy:     -1.018853470048  total:     -0.798362966469  error:     -0.000000000016
 In Bisection function HOMO = -0.324  LUMO =  1.543

 0.60960 = (-0.32358 + 1.54279)/2.0
 sum -  nocc_ = 1.71343124
 On Iteration in Bisection 0
 a: 1.71343  b:-0.46729

 0.14301 = (-0.32358 + 0.60960)/2.0
 sum -  nocc_ = 0.98175145
 On Iteration in Bisection 1
 a: 0.98175  b:-0.46729

 -0.09029 = (-0.32358 + 0.14301)/2.0
 sum -  nocc_ = 0.54917979
 On Iteration in Bisection 2
 a: 0.54918  b:-0.46729

 -0.20694 = (-0.32358 + -0.09029)/2.0
 sum -  nocc_ = 0.03898251
 On Iteration in Bisection 3
 a: 0.03898  b:-0.46729

 -0.26526 = (-0.32358 + -0.20694)/2.0
 sum -  nocc_ = -0.20648531
 On Iteration in Bisection 4
 a: -0.20649  b:-0.46729

 -0.23610 = (-0.26526 + -0.20694)/2.0
 sum -  nocc_ = -0.08215204
 On Iteration in Bisection 5
 a: -0.08215  b:-0.20649

 -0.22152 = (-0.23610 + -0.20694)/2.0
 sum -  nocc_ = -0.02146651
 On Iteration in Bisection 6
 a: -0.02147  b:-0.08215

 -0.21423 = (-0.22152 + -0.20694)/2.0
 sum -  nocc_ = 0.00874572
 On Iteration in Bisection 7
 a: 0.00875  b:-0.02147

 -0.21787 = (-0.22152 + -0.21423)/2.0
 sum -  nocc_ = -0.00635816
 On Iteration in Bisection 8
 a: -0.00636  b:-0.02147

 -0.21605 = (-0.21787 + -0.21423)/2.0
 sum -  nocc_ = 0.00119367
 On Iteration in Bisection 9
 a: 0.00119  b:-0.00636

 -0.21696 = (-0.21787 + -0.21605)/2.0
 sum -  nocc_ = -0.00258219
 On Iteration in Bisection 10
 a: -0.00258  b:-0.00636

 -0.21650 = (-0.21696 + -0.21605)/2.0
 sum -  nocc_ = -0.00069425
 On Iteration in Bisection 11
 a: -0.00069  b:-0.00258

 -0.21628 = (-0.21650 + -0.21605)/2.0
 sum -  nocc_ = 0.00024971
 On Iteration in Bisection 12
 a: 0.00025  b:-0.00069

 -0.21639 = (-0.21650 + -0.21628)/2.0
 sum -  nocc_ = -0.00022227
 On Iteration in Bisection 13
 a: -0.00022  b:-0.00069

 -0.21633 = (-0.21639 + -0.21628)/2.0
 sum -  nocc_ = 0.00001372
 On Iteration in Bisection 14
 a: 0.00001  b:-0.00022

 -0.21636 = (-0.21639 + -0.21633)/2.0
 sum -  nocc_ = -0.00010427
 On Iteration in Bisection 15
 a: -0.00010  b:-0.00022

 -0.21635 = (-0.21636 + -0.21633)/2.0
 sum -  nocc_ = -0.00004528
 On Iteration in Bisection 16
 a: -0.00005  b:-0.00010

 -0.21634 = (-0.21635 + -0.21633)/2.0
 sum -  nocc_ = -0.00001578
 On Iteration in Bisection 17
 a: -0.00002  b:-0.00005

 -0.21634 = (-0.21634 + -0.21633)/2.0
 sum -  nocc_ = -0.00000103
 On Iteration in Bisection 18
 a: -0.00000  b:-0.00002

 -0.21634 = (-0.21634 + -0.21633)/2.0
 sum -  nocc_ = 0.00000635
 On Iteration in Bisection 19
 a: 0.00001  b:-0.00000

 -0.21634 = (-0.21634 + -0.21634)/2.0
 sum -  nocc_ = 0.00000266
 On Iteration in Bisection 20
 a: 0.00000  b:-0.00000

 -0.21634 = (-0.21634 + -0.21634)/2.0
 sum -  nocc_ = 0.00000081
 On Iteration in Bisection 21
 a: 0.00000  b:-0.00000

 -0.21634 = (-0.21634 + -0.21634)/2.0
 sum -  nocc_ = -0.00000011
 On Iteration in Bisection 22
 a: -0.00000  b:-0.00000

 -0.21634 = (-0.21634 + -0.21634)/2.0
 sum -  nocc_ = 0.00000035
 On Iteration in Bisection 23
 a: 0.00000  b:-0.00000

 -0.21634 = (-0.21634 + -0.21634)/2.0
 sum -  nocc_ = 0.00000012
 On Iteration in Bisection 24
 a: 0.00000  b:-0.00000

 -0.21634 = (-0.21634 + -0.21634)/2.0
 sum -  nocc_ = 0.00000001
 ef = -0.21634 sum = 1.00000 

 Iter: 31  T:    20000.000  val:-0.216337  sumni 0.00000
 ne = 1.0000

 iter:32  failiter:32  energy:     -1.018853470055  total:     -0.798362966475  error:     -0.000000000007
 In Bisection function HOMO = -0.324  LUMO =  1.543

 0.60960 = (-0.32358 + 1.54279)/2.0
 sum -  nocc_ = 1.71343124
 On Iteration in Bisection 0
 a: 1.71343  b:-0.46729

 0.14301 = (-0.32358 + 0.60960)/2.0
 sum -  nocc_ = 0.98175145
 On Iteration in Bisection 1
 a: 0.98175  b:-0.46729

 -0.09029 = (-0.32358 + 0.14301)/2.0
 sum -  nocc_ = 0.54917979
 On Iteration in Bisection 2
 a: 0.54918  b:-0.46729

 -0.20694 = (-0.32358 + -0.09029)/2.0
 sum -  nocc_ = 0.03898251
 On Iteration in Bisection 3
 a: 0.03898  b:-0.46729

 -0.26526 = (-0.32358 + -0.20694)/2.0
 sum -  nocc_ = -0.20648531
 On Iteration in Bisection 4
 a: -0.20649  b:-0.46729

 -0.23610 = (-0.26526 + -0.20694)/2.0
 sum -  nocc_ = -0.08215204
 On Iteration in Bisection 5
 a: -0.08215  b:-0.20649

 -0.22152 = (-0.23610 + -0.20694)/2.0
 sum -  nocc_ = -0.02146651
 On Iteration in Bisection 6
 a: -0.02147  b:-0.08215

 -0.21423 = (-0.22152 + -0.20694)/2.0
 sum -  nocc_ = 0.00874572
 On Iteration in Bisection 7
 a: 0.00875  b:-0.02147

 -0.21787 = (-0.22152 + -0.21423)/2.0
 sum -  nocc_ = -0.00635816
 On Iteration in Bisection 8
 a: -0.00636  b:-0.02147

 -0.21605 = (-0.21787 + -0.21423)/2.0
 sum -  nocc_ = 0.00119367
 On Iteration in Bisection 9
 a: 0.00119  b:-0.00636

 -0.21696 = (-0.21787 + -0.21605)/2.0
 sum -  nocc_ = -0.00258219
 On Iteration in Bisection 10
 a: -0.00258  b:-0.00636

 -0.21650 = (-0.21696 + -0.21605)/2.0
 sum -  nocc_ = -0.00069425
 On Iteration in Bisection 11
 a: -0.00069  b:-0.00258

 -0.21628 = (-0.21650 + -0.21605)/2.0
 sum -  nocc_ = 0.00024971
 On Iteration in Bisection 12
 a: 0.00025  b:-0.00069

 -0.21639 = (-0.21650 + -0.21628)/2.0
 sum -  nocc_ = -0.00022227
 On Iteration in Bisection 13
 a: -0.00022  b:-0.00069

 -0.21633 = (-0.21639 + -0.21628)/2.0
 sum -  nocc_ = 0.00001372
 On Iteration in Bisection 14
 a: 0.00001  b:-0.00022

 -0.21636 = (-0.21639 + -0.21633)/2.0
 sum -  nocc_ = -0.00010427
 On Iteration in Bisection 15
 a: -0.00010  b:-0.00022

 -0.21635 = (-0.21636 + -0.21633)/2.0
 sum -  nocc_ = -0.00004528
 On Iteration in Bisection 16
 a: -0.00005  b:-0.00010

 -0.21634 = (-0.21635 + -0.21633)/2.0
 sum -  nocc_ = -0.00001578
 On Iteration in Bisection 17
 a: -0.00002  b:-0.00005

 -0.21634 = (-0.21634 + -0.21633)/2.0
 sum -  nocc_ = -0.00000103
 On Iteration in Bisection 18
 a: -0.00000  b:-0.00002

 -0.21634 = (-0.21634 + -0.21633)/2.0
 sum -  nocc_ = 0.00000635
 On Iteration in Bisection 19
 a: 0.00001  b:-0.00000

 -0.21634 = (-0.21634 + -0.21634)/2.0
 sum -  nocc_ = 0.00000266
 On Iteration in Bisection 20
 a: 0.00000  b:-0.00000

 -0.21634 = (-0.21634 + -0.21634)/2.0
 sum -  nocc_ = 0.00000081
 On Iteration in Bisection 21
 a: 0.00000  b:-0.00000

 -0.21634 = (-0.21634 + -0.21634)/2.0
 sum -  nocc_ = -0.00000011
 On Iteration in Bisection 22
 a: -0.00000  b:-0.00000

 -0.21634 = (-0.21634 + -0.21634)/2.0
 sum -  nocc_ = 0.00000035
 On Iteration in Bisection 23
 a: 0.00000  b:-0.00000

 -0.21634 = (-0.21634 + -0.21634)/2.0
 sum -  nocc_ = 0.00000012
 On Iteration in Bisection 24
 a: 0.00000  b:-0.00000

 -0.21634 = (-0.21634 + -0.21634)/2.0
 sum -  nocc_ = 0.00000001
 ef = -0.21634 sum = 1.00000 

 Iter: 32  T:    20000.000  val:-0.216337  sumni 0.00000
 ne = 1.0000

 iter:33  failiter:33  energy:     -1.018853470057  total:     -0.798362966478  error:     -0.000000000003
 In Bisection function HOMO = -0.324  LUMO =  1.543

 0.60960 = (-0.32358 + 1.54279)/2.0
 sum -  nocc_ = 1.71343124
 On Iteration in Bisection 0
 a: 1.71343  b:-0.46729

 0.14301 = (-0.32358 + 0.60960)/2.0
 sum -  nocc_ = 0.98175145
 On Iteration in Bisection 1
 a: 0.98175  b:-0.46729

 -0.09029 = (-0.32358 + 0.14301)/2.0
 sum -  nocc_ = 0.54917979
 On Iteration in Bisection 2
 a: 0.54918  b:-0.46729

 -0.20694 = (-0.32358 + -0.09029)/2.0
 sum -  nocc_ = 0.03898251
 On Iteration in Bisection 3
 a: 0.03898  b:-0.46729

 -0.26526 = (-0.32358 + -0.20694)/2.0
 sum -  nocc_ = -0.20648531
 On Iteration in Bisection 4
 a: -0.20649  b:-0.46729

 -0.23610 = (-0.26526 + -0.20694)/2.0
 sum -  nocc_ = -0.08215204
 On Iteration in Bisection 5
 a: -0.08215  b:-0.20649

 -0.22152 = (-0.23610 + -0.20694)/2.0
 sum -  nocc_ = -0.02146651
 On Iteration in Bisection 6
 a: -0.02147  b:-0.08215

 -0.21423 = (-0.22152 + -0.20694)/2.0
 sum -  nocc_ = 0.00874572
 On Iteration in Bisection 7
 a: 0.00875  b:-0.02147

 -0.21787 = (-0.22152 + -0.21423)/2.0
 sum -  nocc_ = -0.00635816
 On Iteration in Bisection 8
 a: -0.00636  b:-0.02147

 -0.21605 = (-0.21787 + -0.21423)/2.0
 sum -  nocc_ = 0.00119367
 On Iteration in Bisection 9
 a: 0.00119  b:-0.00636

 -0.21696 = (-0.21787 + -0.21605)/2.0
 sum -  nocc_ = -0.00258219
 On Iteration in Bisection 10
 a: -0.00258  b:-0.00636

 -0.21650 = (-0.21696 + -0.21605)/2.0
 sum -  nocc_ = -0.00069425
 On Iteration in Bisection 11
 a: -0.00069  b:-0.00258

 -0.21628 = (-0.21650 + -0.21605)/2.0
 sum -  nocc_ = 0.00024971
 On Iteration in Bisection 12
 a: 0.00025  b:-0.00069

 -0.21639 = (-0.21650 + -0.21628)/2.0
 sum -  nocc_ = -0.00022227
 On Iteration in Bisection 13
 a: -0.00022  b:-0.00069

 -0.21633 = (-0.21639 + -0.21628)/2.0
 sum -  nocc_ = 0.00001372
 On Iteration in Bisection 14
 a: 0.00001  b:-0.00022

 -0.21636 = (-0.21639 + -0.21633)/2.0
 sum -  nocc_ = -0.00010427
 On Iteration in Bisection 15
 a: -0.00010  b:-0.00022

 -0.21635 = (-0.21636 + -0.21633)/2.0
 sum -  nocc_ = -0.00004528
 On Iteration in Bisection 16
 a: -0.00005  b:-0.00010

 -0.21634 = (-0.21635 + -0.21633)/2.0
 sum -  nocc_ = -0.00001578
 On Iteration in Bisection 17
 a: -0.00002  b:-0.00005

 -0.21634 = (-0.21634 + -0.21633)/2.0
 sum -  nocc_ = -0.00000103
 On Iteration in Bisection 18
 a: -0.00000  b:-0.00002

 -0.21634 = (-0.21634 + -0.21633)/2.0
 sum -  nocc_ = 0.00000635
 On Iteration in Bisection 19
 a: 0.00001  b:-0.00000

 -0.21634 = (-0.21634 + -0.21634)/2.0
 sum -  nocc_ = 0.00000266
 On Iteration in Bisection 20
 a: 0.00000  b:-0.00000

 -0.21634 = (-0.21634 + -0.21634)/2.0
 sum -  nocc_ = 0.00000081
 On Iteration in Bisection 21
 a: 0.00000  b:-0.00000

 -0.21634 = (-0.21634 + -0.21634)/2.0
 sum -  nocc_ = -0.00000011
 On Iteration in Bisection 22
 a: -0.00000  b:-0.00000

 -0.21634 = (-0.21634 + -0.21634)/2.0
 sum -  nocc_ = 0.00000035
 On Iteration in Bisection 23
 a: 0.00000  b:-0.00000

 -0.21634 = (-0.21634 + -0.21634)/2.0
 sum -  nocc_ = 0.00000012
 On Iteration in Bisection 24
 a: 0.00000  b:-0.00000

 -0.21634 = (-0.21634 + -0.21634)/2.0
 sum -  nocc_ = 0.00000001
 ef = -0.21634 sum = 1.00000 

 Iter: 33  T:    20000.000  val:-0.216337  sumni 0.00000
 ne = 1.0000

 iter:34  failiter:34  energy:     -1.018853470059  total:     -0.798362966480  error:     -0.000000000001
 In Bisection function HOMO = -0.324  LUMO =  1.543

 0.60960 = (-0.32358 + 1.54279)/2.0
 sum -  nocc_ = 1.71343124
 On Iteration in Bisection 0
 a: 1.71343  b:-0.46729

 0.14301 = (-0.32358 + 0.60960)/2.0
 sum -  nocc_ = 0.98175145
 On Iteration in Bisection 1
 a: 0.98175  b:-0.46729

 -0.09029 = (-0.32358 + 0.14301)/2.0
 sum -  nocc_ = 0.54917979
 On Iteration in Bisection 2
 a: 0.54918  b:-0.46729

 -0.20694 = (-0.32358 + -0.09029)/2.0
 sum -  nocc_ = 0.03898251
 On Iteration in Bisection 3
 a: 0.03898  b:-0.46729

 -0.26526 = (-0.32358 + -0.20694)/2.0
 sum -  nocc_ = -0.20648531
 On Iteration in Bisection 4
 a: -0.20649  b:-0.46729

 -0.23610 = (-0.26526 + -0.20694)/2.0
 sum -  nocc_ = -0.08215204
 On Iteration in Bisection 5
 a: -0.08215  b:-0.20649

 -0.22152 = (-0.23610 + -0.20694)/2.0
 sum -  nocc_ = -0.02146651
 On Iteration in Bisection 6
 a: -0.02147  b:-0.08215

 -0.21423 = (-0.22152 + -0.20694)/2.0
 sum -  nocc_ = 0.00874572
 On Iteration in Bisection 7
 a: 0.00875  b:-0.02147

 -0.21787 = (-0.22152 + -0.21423)/2.0
 sum -  nocc_ = -0.00635816
 On Iteration in Bisection 8
 a: -0.00636  b:-0.02147

 -0.21605 = (-0.21787 + -0.21423)/2.0
 sum -  nocc_ = 0.00119367
 On Iteration in Bisection 9
 a: 0.00119  b:-0.00636

 -0.21696 = (-0.21787 + -0.21605)/2.0
 sum -  nocc_ = -0.00258219
 On Iteration in Bisection 10
 a: -0.00258  b:-0.00636

 -0.21650 = (-0.21696 + -0.21605)/2.0
 sum -  nocc_ = -0.00069425
 On Iteration in Bisection 11
 a: -0.00069  b:-0.00258

 -0.21628 = (-0.21650 + -0.21605)/2.0
 sum -  nocc_ = 0.00024971
 On Iteration in Bisection 12
 a: 0.00025  b:-0.00069

 -0.21639 = (-0.21650 + -0.21628)/2.0
 sum -  nocc_ = -0.00022227
 On Iteration in Bisection 13
 a: -0.00022  b:-0.00069

 -0.21633 = (-0.21639 + -0.21628)/2.0
 sum -  nocc_ = 0.00001372
 On Iteration in Bisection 14
 a: 0.00001  b:-0.00022

 -0.21636 = (-0.21639 + -0.21633)/2.0
 sum -  nocc_ = -0.00010427
 On Iteration in Bisection 15
 a: -0.00010  b:-0.00022

 -0.21635 = (-0.21636 + -0.21633)/2.0
 sum -  nocc_ = -0.00004528
 On Iteration in Bisection 16
 a: -0.00005  b:-0.00010

 -0.21634 = (-0.21635 + -0.21633)/2.0
 sum -  nocc_ = -0.00001578
 On Iteration in Bisection 17
 a: -0.00002  b:-0.00005

 -0.21634 = (-0.21634 + -0.21633)/2.0
 sum -  nocc_ = -0.00000103
 On Iteration in Bisection 18
 a: -0.00000  b:-0.00002

 -0.21634 = (-0.21634 + -0.21633)/2.0
 sum -  nocc_ = 0.00000635
 On Iteration in Bisection 19
 a: 0.00001  b:-0.00000

 -0.21634 = (-0.21634 + -0.21634)/2.0
 sum -  nocc_ = 0.00000266
 On Iteration in Bisection 20
 a: 0.00000  b:-0.00000

 -0.21634 = (-0.21634 + -0.21634)/2.0
 sum -  nocc_ = 0.00000081
 On Iteration in Bisection 21
 a: 0.00000  b:-0.00000

 -0.21634 = (-0.21634 + -0.21634)/2.0
 sum -  nocc_ = -0.00000011
 On Iteration in Bisection 22
 a: -0.00000  b:-0.00000

 -0.21634 = (-0.21634 + -0.21634)/2.0
 sum -  nocc_ = 0.00000035
 On Iteration in Bisection 23
 a: 0.00000  b:-0.00000

 -0.21634 = (-0.21634 + -0.21634)/2.0
 sum -  nocc_ = 0.00000012
 On Iteration in Bisection 24
 a: 0.00000  b:-0.00000

 -0.21634 = (-0.21634 + -0.21634)/2.0
 sum -  nocc_ = 0.00000001
 ef = -0.21634 sum = 1.00000 

 Iter: 34  T:    20000.000  val:-0.216337  sumni 0.00000
 ne = 1.0000

 iter:35  failiter:35  energy:     -1.018853470059  total:     -0.798362966480  error:     -0.000000000001
 FTHFEnergy =    -0.798363
 FD_dis[0] = 0.84466999 with -0.323584 eig value
 FD_dis[1] = 0.15532756 with -0.109089 eig value
 FD_dis[2] = 0.00000153 with 0.631638 eig value
 FD_dis[3] = 0.00000093 with 0.663397 eig value
 FD_dis[4] = 0.00000000 with 1.442968 eig value
 FD_dis[5] = 0.00000000 with 1.463494 eig value
 FD_dis[6] = 0.00000000 with 1.463494 eig value
 FD_dis[7] = 0.00000000 with 1.472782 eig value
 FD_dis[8] = 0.00000000 with 1.472782 eig value
 FD_dis[9] = 0.00000000 with 1.542786 eig value
*** PSI4 exiting successfully. Buy a developer a beer!
