    -----------------------------------------------------------------------
          Psi4: An Open-Source Ab Initio Electronic Structure Package
                              Psi4 0.1.233 Driver

                          Git: Rev {detached?} ced593a dirty

    J. M. Turney, A. C. Simmonett, R. M. Parrish, E. G. Hohenstein,
    F. A. Evangelista, J. T. Fermann, B. J. Mintz, L. A. Burns, J. J. Wilke,
    M. L. Abrams, N. J. Russ, M. L. Leininger, C. L. Janssen, E. T. Seidl,
    W. D. Allen, H. F. Schaefer, R. A. King, E. F. Valeev, C. D. Sherrill,
    and T. D. Crawford, WIREs Comput. Mol. Sci. 2, 556-565 (2012)
    (doi: 10.1002/wcms.93)

                         Additional Contributions by
    A. E. DePrince, M. Saitow, U. Bozkaya, A. Yu. Sokolov
    -----------------------------------------------------------------------


    Psi4 started on: 12-07-2015  01:05:12 PM EST

    Process ID:   3086
    PSI4DATADIR: /Users/kevinhannon/Programs/psi4cmake/psi4/lib
    Memory level set to 256.000 MB

  ==> Input File <==

--------------------------------------------------------------------------

# PYTHONPATH must include directory above plugin directory.
#     Define either externally or here, then import plugin.
sys.path.insert(0, './..')
import integral_trans

molecule {
O
H 1 R
H 1 R 2 A

R = .9
A = 104.5
symmetry c1
}

set {
  basis sto-3g
}

set integral_trans {
  print 1
}

energy('integral_trans')

integral_trans.exampleFN()

--------------------------------------------------------------------------
/Users/kevinhannon/Programs/Quantum_Programs/Quantum-Programs/integral_trans/integral_trans.so loaded.

*** tstart() called on dhcp190-139.emerson.emory.edu
*** at Mon Dec  7 13:05:12 2015

    There are an even number of electrons - assuming singlet.
    Specify the multiplicity with the MULTP option in the
    input if this is incorrect


         ---------------------------------------------------------
                                   SCF
            by Justin Turney, Rob Parrish, and Andy Simmonett
                              RHF Reference
                        1 Threads,    256 MiB Core
         ---------------------------------------------------------

  ==> Geometry <==

    Molecular point group: c1
    Full point group: C2v

    Geometry (in Angstrom), charge = 0, multiplicity = 1:

       Center              X                  Y                   Z       
    ------------   -----------------  -----------------  -----------------
           O          0.000000000000     0.000000000000    -0.061664597379
           H          0.000000000000    -0.711620616369     0.489330954652
           H          0.000000000000     0.711620616369     0.489330954652

  Running in c1 symmetry.

  Rotational constants: A =     31.01920  B =     16.51522  C =     10.77722 [cm^-1]
  Rotational constants: A = 929932.18007  B = 495113.78280  C = 323092.90466 [MHz]
  Nuclear repulsion =    9.779406144413409

  Charge       = 0
  Multiplicity = 1
  Electrons    = 10
  Nalpha       = 5
  Nbeta        = 5

  ==> Algorithm <==

  SCF Algorithm Type is PK.
  DIIS enabled.
  MOM disabled.
  Fractional occupation disabled.
  Guess Type is CORE.
  Energy threshold   = 1.00e-08
  Density threshold  = 1.00e-08
  Integral threshold = 0.00e+00

  ==> Primary Basis <==

  Basis Set: STO-3G
    Number of shells: 5
    Number of basis function: 7
    Number of Cartesian functions: 7
    Spherical Harmonics?: true
    Max angular momentum: 1

  ==> Pre-Iterations <==

   -------------------------------------------------------
    Irrep   Nso     Nmo     Nalpha   Nbeta   Ndocc  Nsocc
   -------------------------------------------------------
     A          7       7       0       0       0       0
   -------------------------------------------------------
    Total       7       7       5       5       5       0
   -------------------------------------------------------

  Starting with a DF guess...

 OEINTS: Overlap, kinetic, potential, dipole, and quadrupole integrals
         stored in file 35.

  ==> Integral Setup <==

  ==> DFJK: Density-Fitted J/K Matrices <==

    J tasked:                  Yes
    K tasked:                  Yes
    wK tasked:                  No
    OpenMP threads:              1
    Integrals threads:           1
    Memory (MB):               183
    Algorithm:                Core
    Integral Cache:           NONE
    Schwarz Cutoff:          1E-12
    Fitting Condition:       1E-12

   => Auxiliary Basis Set <=

  Basis Set: 
    Number of shells: 30
    Number of basis function: 84
    Number of Cartesian functions: 96
    Spherical Harmonics?: true
    Max angular momentum: 3

  Minimum eigenvalue in the overlap matrix is 3.0451397022E-01.
  Using Symmetric Orthogonalization.
  SCF Guess: Core (One-Electron) Hamiltonian.

  ==> Iterations <==

                           Total Energy        Delta E     RMS |[F,P]|

   @DF-RHF iter   1:   -73.19738773471282   -7.31974e+01   1.61149e-01 
   @DF-RHF iter   2:   -74.93960879032576   -1.74222e+00   1.25081e-02 DIIS
   @DF-RHF iter   3:   -74.94506296571559   -5.45418e-03   2.93301e-03 DIIS
   @DF-RHF iter   4:   -74.94548880700243   -4.25841e-04   5.52336e-04 DIIS
   @DF-RHF iter   5:   -74.94550894504395   -2.01380e-05   1.04987e-04 DIIS
   @DF-RHF iter   6:   -74.94550961905237   -6.74008e-07   7.04610e-06 DIIS
   @DF-RHF iter   7:   -74.94550962084374   -1.79136e-09   3.26655e-08 DIIS
   @DF-RHF iter   8:   -74.94550962084381   -7.10543e-14   3.31831e-10 DIIS

  DF guess converged.

  ==> Integral Setup <==

 MINTS: Wrapper to libmints.
   by Justin Turney

   Calculation information:
      Number of atoms:                   3
      Number of AO shells:               5
      Number of SO shells:               5
      Number of primitives:             15
      Number of atomic orbitals:         7
      Number of basis functions:         7

      Number of irreps:                  1
      Integral cutoff                 0.00e+00
      Number of functions per irrep: [   7 ]

 OEINTS: Overlap, kinetic, potential, dipole, and quadrupole integrals
         stored in file 35.

      Computing two-electron integrals...done
      Computed 231 non-zero two-electron integrals.
        Stored in file 33.

	Batch   1 pq = [       0,      28] index = [             0,406]
  ==> DiskJK: Disk-Based J/K Matrices <==

    J tasked:                  Yes
    K tasked:                  Yes
    wK tasked:                  No
    Memory (MB):               183
    Schwarz Cutoff:          1E-12

   @RHF iter   9:   -74.94502100966497    4.88611e-04   1.35472e-05 DIIS
   @RHF iter  10:   -74.94502101050811   -8.43144e-10   8.31322e-07 DIIS
   @RHF iter  11:   -74.94502101053369   -2.55795e-11   2.50373e-07 DIIS
   @RHF iter  12:   -74.94502101053790   -4.20641e-12   3.65601e-08 DIIS
   @RHF iter  13:   -74.94502101053806   -1.56319e-13   2.44801e-09 DIIS

  ==> Post-Iterations <==

    Orbital Energies (a.u.)
    -----------------------

    Doubly Occupied:                                                      

       1A    -20.236192     2A     -1.300480     3A     -0.649309  
       4A     -0.460194     5A     -0.396298  

    Virtual:                                                              

       6A      0.664827     7A      0.813314  

    Final Occupation by Irrep:
              A 
    DOCC [     5 ]

  Energy converged.

  @RHF Final Energy:   -74.94502101053806

   => Energetics <=

    Nuclear Repulsion Energy =              9.7794061444134091
    One-Electron Energy =                -123.3639077668480013
    Two-Electron Energy =                  38.6394806118965306
    DFT Exchange-Correlation Energy =       0.0000000000000000
    Empirical Dispersion Energy =           0.0000000000000000
    PCM Polarization Energy =               0.0000000000000000
    EFP Energy =                            0.0000000000000000
    Total Energy =                        -74.9450210105380563

    Alert: EFP and PCM quantities not currently incorporated into SCF psivars.

Properties will be evaluated at   0.000000,   0.000000,   0.000000 Bohr
  ==> Properties <==


Properties computed using the SCF density matrix

  Nuclear Dipole Moment: (a.u.)
     X:     0.0000      Y:     0.0000      Z:     0.9172

  Electronic Dipole Moment: (a.u.)
     X:     0.0000      Y:     0.0000      Z:    -0.2095

  Dipole Moment: (a.u.)
     X:     0.0000      Y:     0.0000      Z:     0.7076     Total:     0.7076

  Dipole Moment: (Debye)
     X:     0.0000      Y:     0.0000      Z:     1.7986     Total:     1.7986


  Saving occupied orbitals to File 180.

*** tstop() called on dhcp190-139.emerson.emory.edu at Mon Dec  7 13:05:13 2015
Module time:
	user time   =       0.28 seconds =       0.00 minutes
	system time =       0.01 seconds =       0.00 minutes
	total time  =          1 seconds =       0.02 minutes
Total time:
	user time   =       0.28 seconds =       0.00 minutes
	system time =       0.01 seconds =       0.00 minutes
	total time  =          1 seconds =       0.02 minutes
Reading options from the INTEGRAL_TRANS block
Calling plugin integral_trans.so.
	Presorting SO-basis two-electron integrals.
	Sorting File: SO Ints (nn|nn) nbuckets = 1
	Transforming the one-electron integrals and constructing Fock matrices
	Starting first half-transformation.
	Sorting half-transformed integrals.
	First half integral transformation complete.
	Starting second half-transformation.
	Two-electron integral transformation complete.
( 0  0 |  0  0) =     4.7434533172, symmetries = (0 0 | 0 0), relative indices = ( 0  0 |  0  0)
( 0  0 |  0  1) =     0.4129097416, symmetries = (0 0 | 0 0), relative indices = ( 0  0 |  0  1)
( 0  0 |  0  2) =    -0.0000000000, symmetries = (0 0 | 0 0), relative indices = ( 0  0 |  0  2)
( 0  0 |  0  3) =     0.1884003337, symmetries = (0 0 | 0 0), relative indices = ( 0  0 |  0  3)
( 0  0 |  0  4) =    -0.0000000000, symmetries = (0 0 | 0 0), relative indices = ( 0  0 |  0  4)
( 0  0 |  0  5) =     0.2533283114, symmetries = (0 0 | 0 0), relative indices = ( 0  0 |  0  5)
( 0  0 |  0  6) =     0.0000000000, symmetries = (0 0 | 0 0), relative indices = ( 0  0 |  0  6)
( 0  0 |  1  0) =     0.4129097416, symmetries = (0 0 | 0 0), relative indices = ( 0  0 |  1  0)
( 0  0 |  1  1) =     1.0026477975, symmetries = (0 0 | 0 0), relative indices = ( 0  0 |  1  1)
( 0  0 |  1  2) =    -0.0000000000, symmetries = (0 0 | 0 0), relative indices = ( 0  0 |  1  2)
( 0  0 |  1  3) =     0.1167211006, symmetries = (0 0 | 0 0), relative indices = ( 0  0 |  1  3)
( 0  0 |  1  4) =    -0.0000000000, symmetries = (0 0 | 0 0), relative indices = ( 0  0 |  1  4)
( 0  0 |  1  5) =     0.3227477214, symmetries = (0 0 | 0 0), relative indices = ( 0  0 |  1  5)
( 0  0 |  1  6) =     0.0000000000, symmetries = (0 0 | 0 0), relative indices = ( 0  0 |  1  6)
( 0  0 |  2  0) =    -0.0000000000, symmetries = (0 0 | 0 0), relative indices = ( 0  0 |  2  0)
( 0  0 |  2  1) =    -0.0000000000, symmetries = (0 0 | 0 0), relative indices = ( 0  0 |  2  1)
( 0  0 |  2  2) =     0.8182666903, symmetries = (0 0 | 0 0), relative indices = ( 0  0 |  2  2)
( 0  0 |  2  3) =    -0.0000000000, symmetries = (0 0 | 0 0), relative indices = ( 0  0 |  2  3)
( 0  0 |  2  4) =     0.0000000000, symmetries = (0 0 | 0 0), relative indices = ( 0  0 |  2  4)
( 0  0 |  2  5) =    -0.0000000000, symmetries = (0 0 | 0 0), relative indices = ( 0  0 |  2  5)
( 0  0 |  2  6) =     0.3596267074, symmetries = (0 0 | 0 0), relative indices = ( 0  0 |  2  6)
( 0  0 |  3  0) =     0.1884003337, symmetries = (0 0 | 0 0), relative indices = ( 0  0 |  3  0)
( 0  0 |  3  1) =     0.1167211006, symmetries = (0 0 | 0 0), relative indices = ( 0  0 |  3  1)
( 0  0 |  3  2) =    -0.0000000000, symmetries = (0 0 | 0 0), relative indices = ( 0  0 |  3  2)
( 0  0 |  3  3) =     1.0223091438, symmetries = (0 0 | 0 0), relative indices = ( 0  0 |  3  3)
( 0  0 |  3  4) =     0.0000000000, symmetries = (0 0 | 0 0), relative indices = ( 0  0 |  3  4)
( 0  0 |  3  5) =    -0.1991971704, symmetries = (0 0 | 0 0), relative indices = ( 0  0 |  3  5)
( 0  0 |  3  6) =    -0.0000000000, symmetries = (0 0 | 0 0), relative indices = ( 0  0 |  3  6)
( 0  0 |  4  0) =    -0.0000000000, symmetries = (0 0 | 0 0), relative indices = ( 0  0 |  4  0)
( 0  0 |  4  1) =    -0.0000000000, symmetries = (0 0 | 0 0), relative indices = ( 0  0 |  4  1)
( 0  0 |  4  2) =     0.0000000000, symmetries = (0 0 | 0 0), relative indices = ( 0  0 |  4  2)
( 0  0 |  4  3) =     0.0000000000, symmetries = (0 0 | 0 0), relative indices = ( 0  0 |  4  3)
( 0  0 |  4  4) =     1.1153265865, symmetries = (0 0 | 0 0), relative indices = ( 0  0 |  4  4)
( 0  0 |  4  5) =     0.0000000000, symmetries = (0 0 | 0 0), relative indices = ( 0  0 |  4  5)
( 0  0 |  4  6) =    -0.0000000000, symmetries = (0 0 | 0 0), relative indices = ( 0  0 |  4  6)
( 0  0 |  5  0) =     0.2533283114, symmetries = (0 0 | 0 0), relative indices = ( 0  0 |  5  0)
( 0  0 |  5  1) =     0.3227477214, symmetries = (0 0 | 0 0), relative indices = ( 0  0 |  5  1)
( 0  0 |  5  2) =    -0.0000000000, symmetries = (0 0 | 0 0), relative indices = ( 0  0 |  5  2)
( 0  0 |  5  3) =    -0.1991971704, symmetries = (0 0 | 0 0), relative indices = ( 0  0 |  5  3)
( 0  0 |  5  4) =     0.0000000000, symmetries = (0 0 | 0 0), relative indices = ( 0  0 |  5  4)
( 0  0 |  5  5) =     0.8113543385, symmetries = (0 0 | 0 0), relative indices = ( 0  0 |  5  5)
( 0  0 |  5  6) =    -0.0000000000, symmetries = (0 0 | 0 0), relative indices = ( 0  0 |  5  6)
( 0  0 |  6  0) =     0.0000000000, symmetries = (0 0 | 0 0), relative indices = ( 0  0 |  6  0)
( 0  0 |  6  1) =     0.0000000000, symmetries = (0 0 | 0 0), relative indices = ( 0  0 |  6  1)
( 0  0 |  6  2) =     0.3596267074, symmetries = (0 0 | 0 0), relative indices = ( 0  0 |  6  2)
( 0  0 |  6  3) =    -0.0000000000, symmetries = (0 0 | 0 0), relative indices = ( 0  0 |  6  3)
( 0  0 |  6  4) =    -0.0000000000, symmetries = (0 0 | 0 0), relative indices = ( 0  0 |  6  4)
( 0  0 |  6  5) =    -0.0000000000, symmetries = (0 0 | 0 0), relative indices = ( 0  0 |  6  5)
( 0  0 |  6  6) =     0.8812375682, symmetries = (0 0 | 0 0), relative indices = ( 0  0 |  6  6)
( 0  1 |  0  0) =     0.4129097416, symmetries = (0 0 | 0 0), relative indices = ( 0  1 |  0  0)
( 0  1 |  0  1) =     0.0573585617, symmetries = (0 0 | 0 0), relative indices = ( 0  1 |  0  1)
( 0  1 |  0  2) =    -0.0000000000, symmetries = (0 0 | 0 0), relative indices = ( 0  1 |  0  2)
( 0  1 |  0  3) =     0.0223818808, symmetries = (0 0 | 0 0), relative indices = ( 0  1 |  0  3)
( 0  1 |  0  4) =    -0.0000000000, symmetries = (0 0 | 0 0), relative indices = ( 0  1 |  0  4)
( 0  1 |  0  5) =     0.0380413322, symmetries = (0 0 | 0 0), relative indices = ( 0  1 |  0  5)
( 0  1 |  0  6) =     0.0000000000, symmetries = (0 0 | 0 0), relative indices = ( 0  1 |  0  6)
( 0  1 |  1  0) =     0.0573585617, symmetries = (0 0 | 0 0), relative indices = ( 0  1 |  1  0)
( 0  1 |  1  1) =     0.0120572722, symmetries = (0 0 | 0 0), relative indices = ( 0  1 |  1  1)
( 0  1 |  1  2) =    -0.0000000000, symmetries = (0 0 | 0 0), relative indices = ( 0  1 |  1  2)
( 0  1 |  1  3) =     0.0096234658, symmetries = (0 0 | 0 0), relative indices = ( 0  1 |  1  3)
( 0  1 |  1  4) =    -0.0000000000, symmetries = (0 0 | 0 0), relative indices = ( 0  1 |  1  4)
( 0  1 |  1  5) =     0.0068476121, symmetries = (0 0 | 0 0), relative indices = ( 0  1 |  1  5)
( 0  1 |  1  6) =     0.0000000000, symmetries = (0 0 | 0 0), relative indices = ( 0  1 |  1  6)
( 0  1 |  2  0) =    -0.0000000000, symmetries = (0 0 | 0 0), relative indices = ( 0  1 |  2  0)
( 0  1 |  2  1) =    -0.0000000000, symmetries = (0 0 | 0 0), relative indices = ( 0  1 |  2  1)
( 0  1 |  2  2) =     0.0043449315, symmetries = (0 0 | 0 0), relative indices = ( 0  1 |  2  2)
( 0  1 |  2  3) =    -0.0000000000, symmetries = (0 0 | 0 0), relative indices = ( 0  1 |  2  3)
( 0  1 |  2  4) =     0.0000000000, symmetries = (0 0 | 0 0), relative indices = ( 0  1 |  2  4)
( 0  1 |  2  5) =    -0.0000000000, symmetries = (0 0 | 0 0), relative indices = ( 0  1 |  2  5)
( 0  1 |  2  6) =     0.0078391872, symmetries = (0 0 | 0 0), relative indices = ( 0  1 |  2  6)
( 0  1 |  3  0) =     0.0223818808, symmetries = (0 0 | 0 0), relative indices = ( 0  1 |  3  0)
( 0  1 |  3  1) =     0.0096234658, symmetries = (0 0 | 0 0), relative indices = ( 0  1 |  3  1)
( 0  1 |  3  2) =    -0.0000000000, symmetries = (0 0 | 0 0), relative indices = ( 0  1 |  3  2)
( 0  1 |  3  3) =     0.0145744964, symmetries = (0 0 | 0 0), relative indices = ( 0  1 |  3  3)
( 0  1 |  3  4) =    -0.0000000000, symmetries = (0 0 | 0 0), relative indices = ( 0  1 |  3  4)
( 0  1 |  3  5) =    -0.0016703298, symmetries = (0 0 | 0 0), relative indices = ( 0  1 |  3  5)
( 0  1 |  3  6) =    -0.0000000000, symmetries = (0 0 | 0 0), relative indices = ( 0  1 |  3  6)
( 0  1 |  4  0) =    -0.0000000000, symmetries = (0 0 | 0 0), relative indices = ( 0  1 |  4  0)
( 0  1 |  4  1) =    -0.0000000000, symmetries = (0 0 | 0 0), relative indices = ( 0  1 |  4  1)
( 0  1 |  4  2) =     0.0000000000, symmetries = (0 0 | 0 0), relative indices = ( 0  1 |  4  2)
( 0  1 |  4  3) =    -0.0000000000, symmetries = (0 0 | 0 0), relative indices = ( 0  1 |  4  3)
( 0  1 |  4  4) =     0.0115514358, symmetries = (0 0 | 0 0), relative indices = ( 0  1 |  4  4)
( 0  1 |  4  5) =    -0.0000000000, symmetries = (0 0 | 0 0), relative indices = ( 0  1 |  4  5)
( 0  1 |  4  6) =    -0.0000000000, symmetries = (0 0 | 0 0), relative indices = ( 0  1 |  4  6)
( 0  1 |  5  0) =     0.0380413322, symmetries = (0 0 | 0 0), relative indices = ( 0  1 |  5  0)
( 0  1 |  5  1) =     0.0068476121, symmetries = (0 0 | 0 0), relative indices = ( 0  1 |  5  1)
( 0  1 |  5  2) =    -0.0000000000, symmetries = (0 0 | 0 0), relative indices = ( 0  1 |  5  2)
( 0  1 |  5  3) =    -0.0016703298, symmetries = (0 0 | 0 0), relative indices = ( 0  1 |  5  3)
( 0  1 |  5  4) =    -0.0000000000, symmetries = (0 0 | 0 0), relative indices = ( 0  1 |  5  4)
( 0  1 |  5  5) =     0.0067634359, symmetries = (0 0 | 0 0), relative indices = ( 0  1 |  5  5)
( 0  1 |  5  6) =    -0.0000000000, symmetries = (0 0 | 0 0), relative indices = ( 0  1 |  5  6)
( 0  1 |  6  0) =     0.0000000000, symmetries = (0 0 | 0 0), relative indices = ( 0  1 |  6  0)
( 0  1 |  6  1) =     0.0000000000, symmetries = (0 0 | 0 0), relative indices = ( 0  1 |  6  1)
( 0  1 |  6  2) =     0.0078391872, symmetries = (0 0 | 0 0), relative indices = ( 0  1 |  6  2)
( 0  1 |  6  3) =    -0.0000000000, symmetries = (0 0 | 0 0), relative indices = ( 0  1 |  6  3)
( 0  1 |  6  4) =    -0.0000000000, symmetries = (0 0 | 0 0), relative indices = ( 0  1 |  6  4)
( 0  1 |  6  5) =    -0.0000000000, symmetries = (0 0 | 0 0), relative indices = ( 0  1 |  6  5)
( 0  1 |  6  6) =     0.0096645370, symmetries = (0 0 | 0 0), relative indices = ( 0  1 |  6  6)
( 0  2 |  0  0) =    -0.0000000000, symmetries = (0 0 | 0 0), relative indices = ( 0  2 |  0  0)
( 0  2 |  0  1) =    -0.0000000000, symmetries = (0 0 | 0 0), relative indices = ( 0  2 |  0  1)
( 0  2 |  0  2) =     0.0113040544, symmetries = (0 0 | 0 0), relative indices = ( 0  2 |  0  2)
( 0  2 |  0  3) =    -0.0000000000, symmetries = (0 0 | 0 0), relative indices = ( 0  2 |  0  3)
( 0  2 |  0  4) =     0.0000000000, symmetries = (0 0 | 0 0), relative indices = ( 0  2 |  0  4)
( 0  2 |  0  5) =    -0.0000000000, symmetries = (0 0 | 0 0), relative indices = ( 0  2 |  0  5)
( 0  2 |  0  6) =     0.0158450346, symmetries = (0 0 | 0 0), relative indices = ( 0  2 |  0  6)
( 0  2 |  1  0) =    -0.0000000000, symmetries = (0 0 | 0 0), relative indices = ( 0  2 |  1  0)
( 0  2 |  1  1) =    -0.0000000000, symmetries = (0 0 | 0 0), relative indices = ( 0  2 |  1  1)
( 0  2 |  1  2) =    -0.0183530360, symmetries = (0 0 | 0 0), relative indices = ( 0  2 |  1  2)
( 0  2 |  1  3) =    -0.0000000000, symmetries = (0 0 | 0 0), relative indices = ( 0  2 |  1  3)
( 0  2 |  1  4) =    -0.0000000000, symmetries = (0 0 | 0 0), relative indices = ( 0  2 |  1  4)
( 0  2 |  1  5) =     0.0000000000, symmetries = (0 0 | 0 0), relative indices = ( 0  2 |  1  5)
( 0  2 |  1  6) =    -0.0134908583, symmetries = (0 0 | 0 0), relative indices = ( 0  2 |  1  6)
( 0  2 |  2  0) =     0.0113040544, symmetries = (0 0 | 0 0), relative indices = ( 0  2 |  2  0)
( 0  2 |  2  1) =    -0.0183530360, symmetries = (0 0 | 0 0), relative indices = ( 0  2 |  2  1)
( 0  2 |  2  2) =    -0.0000000000, symmetries = (0 0 | 0 0), relative indices = ( 0  2 |  2  2)
( 0  2 |  2  3) =    -0.0038764155, symmetries = (0 0 | 0 0), relative indices = ( 0  2 |  2  3)
( 0  2 |  2  4) =     0.0000000000, symmetries = (0 0 | 0 0), relative indices = ( 0  2 |  2  4)
( 0  2 |  2  5) =    -0.0033881365, symmetries = (0 0 | 0 0), relative indices = ( 0  2 |  2  5)
( 0  2 |  2  6) =     0.0000000000, symmetries = (0 0 | 0 0), relative indices = ( 0  2 |  2  6)
( 0  2 |  3  0) =    -0.0000000000, symmetries = (0 0 | 0 0), relative indices = ( 0  2 |  3  0)
( 0  2 |  3  1) =    -0.0000000000, symmetries = (0 0 | 0 0), relative indices = ( 0  2 |  3  1)
( 0  2 |  3  2) =    -0.0038764155, symmetries = (0 0 | 0 0), relative indices = ( 0  2 |  3  2)
( 0  2 |  3  3) =    -0.0000000000, symmetries = (0 0 | 0 0), relative indices = ( 0  2 |  3  3)
( 0  2 |  3  4) =    -0.0000000000, symmetries = (0 0 | 0 0), relative indices = ( 0  2 |  3  4)
( 0  2 |  3  5) =     0.0000000000, symmetries = (0 0 | 0 0), relative indices = ( 0  2 |  3  5)
( 0  2 |  3  6) =    -0.0102047457, symmetries = (0 0 | 0 0), relative indices = ( 0  2 |  3  6)
( 0  2 |  4  0) =     0.0000000000, symmetries = (0 0 | 0 0), relative indices = ( 0  2 |  4  0)
( 0  2 |  4  1) =    -0.0000000000, symmetries = (0 0 | 0 0), relative indices = ( 0  2 |  4  1)
( 0  2 |  4  2) =     0.0000000000, symmetries = (0 0 | 0 0), relative indices = ( 0  2 |  4  2)
( 0  2 |  4  3) =    -0.0000000000, symmetries = (0 0 | 0 0), relative indices = ( 0  2 |  4  3)
( 0  2 |  4  4) =    -0.0000000000, symmetries = (0 0 | 0 0), relative indices = ( 0  2 |  4  4)
( 0  2 |  4  5) =    -0.0000000000, symmetries = (0 0 | 0 0), relative indices = ( 0  2 |  4  5)
( 0  2 |  4  6) =     0.0000000000, symmetries = (0 0 | 0 0), relative indices = ( 0  2 |  4  6)
( 0  2 |  5  0) =    -0.0000000000, symmetries = (0 0 | 0 0), relative indices = ( 0  2 |  5  0)
( 0  2 |  5  1) =     0.0000000000, symmetries = (0 0 | 0 0), relative indices = ( 0  2 |  5  1)
( 0  2 |  5  2) =    -0.0033881365, symmetries = (0 0 | 0 0), relative indices = ( 0  2 |  5  2)
( 0  2 |  5  3) =     0.0000000000, symmetries = (0 0 | 0 0), relative indices = ( 0  2 |  5  3)
( 0  2 |  5  4) =    -0.0000000000, symmetries = (0 0 | 0 0), relative indices = ( 0  2 |  5  4)
( 0  2 |  5  5) =    -0.0000000000, symmetries = (0 0 | 0 0), relative indices = ( 0  2 |  5  5)
( 0  2 |  5  6) =    -0.0099026807, symmetries = (0 0 | 0 0), relative indices = ( 0  2 |  5  6)
( 0  2 |  6  0) =     0.0158450346, symmetries = (0 0 | 0 0), relative indices = ( 0  2 |  6  0)
( 0  2 |  6  1) =    -0.0134908583, symmetries = (0 0 | 0 0), relative indices = ( 0  2 |  6  1)
( 0  2 |  6  2) =     0.0000000000, symmetries = (0 0 | 0 0), relative indices = ( 0  2 |  6  2)
( 0  2 |  6  3) =    -0.0102047457, symmetries = (0 0 | 0 0), relative indices = ( 0  2 |  6  3)
( 0  2 |  6  4) =     0.0000000000, symmetries = (0 0 | 0 0), relative indices = ( 0  2 |  6  4)
( 0  2 |  6  5) =    -0.0099026807, symmetries = (0 0 | 0 0), relative indices = ( 0  2 |  6  5)
( 0  2 |  6  6) =    -0.0000000000, symmetries = (0 0 | 0 0), relative indices = ( 0  2 |  6  6)
( 0  3 |  0  0) =     0.1884003337, symmetries = (0 0 | 0 0), relative indices = ( 0  3 |  0  0)
( 0  3 |  0  1) =     0.0223818808, symmetries = (0 0 | 0 0), relative indices = ( 0  3 |  0  1)
( 0  3 |  0  2) =    -0.0000000000, symmetries = (0 0 | 0 0), relative indices = ( 0  3 |  0  2)
( 0  3 |  0  3) =     0.0289684651, symmetries = (0 0 | 0 0), relative indices = ( 0  3 |  0  3)
( 0  3 |  0  4) =    -0.0000000000, symmetries = (0 0 | 0 0), relative indices = ( 0  3 |  0  4)
( 0  3 |  0  5) =     0.0018294532, symmetries = (0 0 | 0 0), relative indices = ( 0  3 |  0  5)
( 0  3 |  0  6) =     0.0000000000, symmetries = (0 0 | 0 0), relative indices = ( 0  3 |  0  6)
( 0  3 |  1  0) =     0.0223818808, symmetries = (0 0 | 0 0), relative indices = ( 0  3 |  1  0)
( 0  3 |  1  1) =     0.0176203958, symmetries = (0 0 | 0 0), relative indices = ( 0  3 |  1  1)
( 0  3 |  1  2) =     0.0000000000, symmetries = (0 0 | 0 0), relative indices = ( 0  3 |  1  2)
( 0  3 |  1  3) =    -0.0191230742, symmetries = (0 0 | 0 0), relative indices = ( 0  3 |  1  3)
( 0  3 |  1  4) =    -0.0000000000, symmetries = (0 0 | 0 0), relative indices = ( 0  3 |  1  4)
( 0  3 |  1  5) =     0.0187172487, symmetries = (0 0 | 0 0), relative indices = ( 0  3 |  1  5)
( 0  3 |  1  6) =     0.0000000000, symmetries = (0 0 | 0 0), relative indices = ( 0  3 |  1  6)
( 0  3 |  2  0) =    -0.0000000000, symmetries = (0 0 | 0 0), relative indices = ( 0  3 |  2  0)
( 0  3 |  2  1) =     0.0000000000, symmetries = (0 0 | 0 0), relative indices = ( 0  3 |  2  1)
( 0  3 |  2  2) =     0.0068215623, symmetries = (0 0 | 0 0), relative indices = ( 0  3 |  2  2)
( 0  3 |  2  3) =     0.0000000000, symmetries = (0 0 | 0 0), relative indices = ( 0  3 |  2  3)
( 0  3 |  2  4) =     0.0000000000, symmetries = (0 0 | 0 0), relative indices = ( 0  3 |  2  4)
( 0  3 |  2  5) =    -0.0000000000, symmetries = (0 0 | 0 0), relative indices = ( 0  3 |  2  5)
( 0  3 |  2  6) =    -0.0011746622, symmetries = (0 0 | 0 0), relative indices = ( 0  3 |  2  6)
( 0  3 |  3  0) =     0.0289684651, symmetries = (0 0 | 0 0), relative indices = ( 0  3 |  3  0)
( 0  3 |  3  1) =    -0.0191230742, symmetries = (0 0 | 0 0), relative indices = ( 0  3 |  3  1)
( 0  3 |  3  2) =     0.0000000000, symmetries = (0 0 | 0 0), relative indices = ( 0  3 |  3  2)
( 0  3 |  3  3) =    -0.0123916085, symmetries = (0 0 | 0 0), relative indices = ( 0  3 |  3  3)
( 0  3 |  3  4) =     0.0000000000, symmetries = (0 0 | 0 0), relative indices = ( 0  3 |  3  4)
( 0  3 |  3  5) =    -0.0029626104, symmetries = (0 0 | 0 0), relative indices = ( 0  3 |  3  5)
( 0  3 |  3  6) =    -0.0000000000, symmetries = (0 0 | 0 0), relative indices = ( 0  3 |  3  6)
( 0  3 |  4  0) =    -0.0000000000, symmetries = (0 0 | 0 0), relative indices = ( 0  3 |  4  0)
( 0  3 |  4  1) =    -0.0000000000, symmetries = (0 0 | 0 0), relative indices = ( 0  3 |  4  1)
( 0  3 |  4  2) =     0.0000000000, symmetries = (0 0 | 0 0), relative indices = ( 0  3 |  4  2)
( 0  3 |  4  3) =     0.0000000000, symmetries = (0 0 | 0 0), relative indices = ( 0  3 |  4  3)
( 0  3 |  4  4) =     0.0052370345, symmetries = (0 0 | 0 0), relative indices = ( 0  3 |  4  4)
( 0  3 |  4  5) =    -0.0000000000, symmetries = (0 0 | 0 0), relative indices = ( 0  3 |  4  5)
( 0  3 |  4  6) =     0.0000000000, symmetries = (0 0 | 0 0), relative indices = ( 0  3 |  4  6)
( 0  3 |  5  0) =     0.0018294532, symmetries = (0 0 | 0 0), relative indices = ( 0  3 |  5  0)
( 0  3 |  5  1) =     0.0187172487, symmetries = (0 0 | 0 0), relative indices = ( 0  3 |  5  1)
( 0  3 |  5  2) =    -0.0000000000, symmetries = (0 0 | 0 0), relative indices = ( 0  3 |  5  2)
( 0  3 |  5  3) =    -0.0029626104, symmetries = (0 0 | 0 0), relative indices = ( 0  3 |  5  3)
( 0  3 |  5  4) =    -0.0000000000, symmetries = (0 0 | 0 0), relative indices = ( 0  3 |  5  4)
( 0  3 |  5  5) =     0.0223642582, symmetries = (0 0 | 0 0), relative indices = ( 0  3 |  5  5)
( 0  3 |  5  6) =     0.0000000000, symmetries = (0 0 | 0 0), relative indices = ( 0  3 |  5  6)
( 0  3 |  6  0) =     0.0000000000, symmetries = (0 0 | 0 0), relative indices = ( 0  3 |  6  0)
( 0  3 |  6  1) =     0.0000000000, symmetries = (0 0 | 0 0), relative indices = ( 0  3 |  6  1)
( 0  3 |  6  2) =    -0.0011746622, symmetries = (0 0 | 0 0), relative indices = ( 0  3 |  6  2)
( 0  3 |  6  3) =    -0.0000000000, symmetries = (0 0 | 0 0), relative indices = ( 0  3 |  6  3)
( 0  3 |  6  4) =     0.0000000000, symmetries = (0 0 | 0 0), relative indices = ( 0  3 |  6  4)
( 0  3 |  6  5) =     0.0000000000, symmetries = (0 0 | 0 0), relative indices = ( 0  3 |  6  5)
( 0  3 |  6  6) =     0.0043082059, symmetries = (0 0 | 0 0), relative indices = ( 0  3 |  6  6)
( 0  4 |  0  0) =    -0.0000000000, symmetries = (0 0 | 0 0), relative indices = ( 0  4 |  0  0)
( 0  4 |  0  1) =    -0.0000000000, symmetries = (0 0 | 0 0), relative indices = ( 0  4 |  0  1)
( 0  4 |  0  2) =     0.0000000000, symmetries = (0 0 | 0 0), relative indices = ( 0  4 |  0  2)
( 0  4 |  0  3) =    -0.0000000000, symmetries = (0 0 | 0 0), relative indices = ( 0  4 |  0  3)
( 0  4 |  0  4) =     0.0260818852, symmetries = (0 0 | 0 0), relative indices = ( 0  4 |  0  4)
( 0  4 |  0  5) =    -0.0000000000, symmetries = (0 0 | 0 0), relative indices = ( 0  4 |  0  5)
( 0  4 |  0  6) =    -0.0000000000, symmetries = (0 0 | 0 0), relative indices = ( 0  4 |  0  6)
( 0  4 |  1  0) =    -0.0000000000, symmetries = (0 0 | 0 0), relative indices = ( 0  4 |  1  0)
( 0  4 |  1  1) =    -0.0000000000, symmetries = (0 0 | 0 0), relative indices = ( 0  4 |  1  1)
( 0  4 |  1  2) =    -0.0000000000, symmetries = (0 0 | 0 0), relative indices = ( 0  4 |  1  2)
( 0  4 |  1  3) =    -0.0000000000, symmetries = (0 0 | 0 0), relative indices = ( 0  4 |  1  3)
( 0  4 |  1  4) =    -0.0322283186, symmetries = (0 0 | 0 0), relative indices = ( 0  4 |  1  4)
( 0  4 |  1  5) =    -0.0000000000, symmetries = (0 0 | 0 0), relative indices = ( 0  4 |  1  5)
( 0  4 |  1  6) =     0.0000000000, symmetries = (0 0 | 0 0), relative indices = ( 0  4 |  1  6)
( 0  4 |  2  0) =     0.0000000000, symmetries = (0 0 | 0 0), relative indices = ( 0  4 |  2  0)
( 0  4 |  2  1) =    -0.0000000000, symmetries = (0 0 | 0 0), relative indices = ( 0  4 |  2  1)
( 0  4 |  2  2) =    -0.0000000000, symmetries = (0 0 | 0 0), relative indices = ( 0  4 |  2  2)
( 0  4 |  2  3) =    -0.0000000000, symmetries = (0 0 | 0 0), relative indices = ( 0  4 |  2  3)
( 0  4 |  2  4) =     0.0000000000, symmetries = (0 0 | 0 0), relative indices = ( 0  4 |  2  4)
( 0  4 |  2  5) =    -0.0000000000, symmetries = (0 0 | 0 0), relative indices = ( 0  4 |  2  5)
( 0  4 |  2  6) =    -0.0000000000, symmetries = (0 0 | 0 0), relative indices = ( 0  4 |  2  6)
( 0  4 |  3  0) =    -0.0000000000, symmetries = (0 0 | 0 0), relative indices = ( 0  4 |  3  0)
( 0  4 |  3  1) =    -0.0000000000, symmetries = (0 0 | 0 0), relative indices = ( 0  4 |  3  1)
( 0  4 |  3  2) =    -0.0000000000, symmetries = (0 0 | 0 0), relative indices = ( 0  4 |  3  2)
( 0  4 |  3  3) =    -0.0000000000, symmetries = (0 0 | 0 0), relative indices = ( 0  4 |  3  3)
( 0  4 |  3  4) =    -0.0139083419, symmetries = (0 0 | 0 0), relative indices = ( 0  4 |  3  4)
( 0  4 |  3  5) =    -0.0000000000, symmetries = (0 0 | 0 0), relative indices = ( 0  4 |  3  5)
( 0  4 |  3  6) =     0.0000000000, symmetries = (0 0 | 0 0), relative indices = ( 0  4 |  3  6)
( 0  4 |  4  0) =     0.0260818852, symmetries = (0 0 | 0 0), relative indices = ( 0  4 |  4  0)
( 0  4 |  4  1) =    -0.0322283186, symmetries = (0 0 | 0 0), relative indices = ( 0  4 |  4  1)
( 0  4 |  4  2) =     0.0000000000, symmetries = (0 0 | 0 0), relative indices = ( 0  4 |  4  2)
( 0  4 |  4  3) =    -0.0139083419, symmetries = (0 0 | 0 0), relative indices = ( 0  4 |  4  3)
( 0  4 |  4  4) =     0.0000000000, symmetries = (0 0 | 0 0), relative indices = ( 0  4 |  4  4)
( 0  4 |  4  5) =    -0.0167583571, symmetries = (0 0 | 0 0), relative indices = ( 0  4 |  4  5)
( 0  4 |  4  6) =    -0.0000000000, symmetries = (0 0 | 0 0), relative indices = ( 0  4 |  4  6)
( 0  4 |  5  0) =    -0.0000000000, symmetries = (0 0 | 0 0), relative indices = ( 0  4 |  5  0)
( 0  4 |  5  1) =    -0.0000000000, symmetries = (0 0 | 0 0), relative indices = ( 0  4 |  5  1)
( 0  4 |  5  2) =    -0.0000000000, symmetries = (0 0 | 0 0), relative indices = ( 0  4 |  5  2)
( 0  4 |  5  3) =    -0.0000000000, symmetries = (0 0 | 0 0), relative indices = ( 0  4 |  5  3)
( 0  4 |  5  4) =    -0.0167583571, symmetries = (0 0 | 0 0), relative indices = ( 0  4 |  5  4)
( 0  4 |  5  5) =    -0.0000000000, symmetries = (0 0 | 0 0), relative indices = ( 0  4 |  5  5)
( 0  4 |  5  6) =     0.0000000000, symmetries = (0 0 | 0 0), relative indices = ( 0  4 |  5  6)
( 0  4 |  6  0) =    -0.0000000000, symmetries = (0 0 | 0 0), relative indices = ( 0  4 |  6  0)
( 0  4 |  6  1) =     0.0000000000, symmetries = (0 0 | 0 0), relative indices = ( 0  4 |  6  1)
( 0  4 |  6  2) =    -0.0000000000, symmetries = (0 0 | 0 0), relative indices = ( 0  4 |  6  2)
( 0  4 |  6  3) =     0.0000000000, symmetries = (0 0 | 0 0), relative indices = ( 0  4 |  6  3)
( 0  4 |  6  4) =    -0.0000000000, symmetries = (0 0 | 0 0), relative indices = ( 0  4 |  6  4)
( 0  4 |  6  5) =     0.0000000000, symmetries = (0 0 | 0 0), relative indices = ( 0  4 |  6  5)
( 0  4 |  6  6) =    -0.0000000000, symmetries = (0 0 | 0 0), relative indices = ( 0  4 |  6  6)
( 0  5 |  0  0) =     0.2533283114, symmetries = (0 0 | 0 0), relative indices = ( 0  5 |  0  0)
( 0  5 |  0  1) =     0.0380413322, symmetries = (0 0 | 0 0), relative indices = ( 0  5 |  0  1)
( 0  5 |  0  2) =    -0.0000000000, symmetries = (0 0 | 0 0), relative indices = ( 0  5 |  0  2)
( 0  5 |  0  3) =     0.0018294532, symmetries = (0 0 | 0 0), relative indices = ( 0  5 |  0  3)
( 0  5 |  0  4) =    -0.0000000000, symmetries = (0 0 | 0 0), relative indices = ( 0  5 |  0  4)
( 0  5 |  0  5) =     0.0336454397, symmetries = (0 0 | 0 0), relative indices = ( 0  5 |  0  5)
( 0  5 |  0  6) =     0.0000000000, symmetries = (0 0 | 0 0), relative indices = ( 0  5 |  0  6)
( 0  5 |  1  0) =     0.0380413322, symmetries = (0 0 | 0 0), relative indices = ( 0  5 |  1  0)
( 0  5 |  1  1) =     0.0002470580, symmetries = (0 0 | 0 0), relative indices = ( 0  5 |  1  1)
( 0  5 |  1  2) =     0.0000000000, symmetries = (0 0 | 0 0), relative indices = ( 0  5 |  1  2)
( 0  5 |  1  3) =     0.0200014073, symmetries = (0 0 | 0 0), relative indices = ( 0  5 |  1  3)
( 0  5 |  1  4) =    -0.0000000000, symmetries = (0 0 | 0 0), relative indices = ( 0  5 |  1  4)
( 0  5 |  1  5) =    -0.0055376439, symmetries = (0 0 | 0 0), relative indices = ( 0  5 |  1  5)
( 0  5 |  1  6) =     0.0000000000, symmetries = (0 0 | 0 0), relative indices = ( 0  5 |  1  6)
( 0  5 |  2  0) =    -0.0000000000, symmetries = (0 0 | 0 0), relative indices = ( 0  5 |  2  0)
( 0  5 |  2  1) =     0.0000000000, symmetries = (0 0 | 0 0), relative indices = ( 0  5 |  2  1)
( 0  5 |  2  2) =     0.0000407300, symmetries = (0 0 | 0 0), relative indices = ( 0  5 |  2  2)
( 0  5 |  2  3) =    -0.0000000000, symmetries = (0 0 | 0 0), relative indices = ( 0  5 |  2  3)
( 0  5 |  2  4) =     0.0000000000, symmetries = (0 0 | 0 0), relative indices = ( 0  5 |  2  4)
( 0  5 |  2  5) =    -0.0000000000, symmetries = (0 0 | 0 0), relative indices = ( 0  5 |  2  5)
( 0  5 |  2  6) =     0.0075651940, symmetries = (0 0 | 0 0), relative indices = ( 0  5 |  2  6)
( 0  5 |  3  0) =     0.0018294532, symmetries = (0 0 | 0 0), relative indices = ( 0  5 |  3  0)
( 0  5 |  3  1) =     0.0200014073, symmetries = (0 0 | 0 0), relative indices = ( 0  5 |  3  1)
( 0  5 |  3  2) =    -0.0000000000, symmetries = (0 0 | 0 0), relative indices = ( 0  5 |  3  2)
( 0  5 |  3  3) =     0.0204413507, symmetries = (0 0 | 0 0), relative indices = ( 0  5 |  3  3)
( 0  5 |  3  4) =    -0.0000000000, symmetries = (0 0 | 0 0), relative indices = ( 0  5 |  3  4)
( 0  5 |  3  5) =     0.0004631541, symmetries = (0 0 | 0 0), relative indices = ( 0  5 |  3  5)
( 0  5 |  3  6) =     0.0000000000, symmetries = (0 0 | 0 0), relative indices = ( 0  5 |  3  6)
( 0  5 |  4  0) =    -0.0000000000, symmetries = (0 0 | 0 0), relative indices = ( 0  5 |  4  0)
( 0  5 |  4  1) =    -0.0000000000, symmetries = (0 0 | 0 0), relative indices = ( 0  5 |  4  1)
( 0  5 |  4  2) =     0.0000000000, symmetries = (0 0 | 0 0), relative indices = ( 0  5 |  4  2)
( 0  5 |  4  3) =    -0.0000000000, symmetries = (0 0 | 0 0), relative indices = ( 0  5 |  4  3)
( 0  5 |  4  4) =     0.0064986914, symmetries = (0 0 | 0 0), relative indices = ( 0  5 |  4  4)
( 0  5 |  4  5) =    -0.0000000000, symmetries = (0 0 | 0 0), relative indices = ( 0  5 |  4  5)
( 0  5 |  4  6) =    -0.0000000000, symmetries = (0 0 | 0 0), relative indices = ( 0  5 |  4  6)
( 0  5 |  5  0) =     0.0336454397, symmetries = (0 0 | 0 0), relative indices = ( 0  5 |  5  0)
( 0  5 |  5  1) =    -0.0055376439, symmetries = (0 0 | 0 0), relative indices = ( 0  5 |  5  1)
( 0  5 |  5  2) =    -0.0000000000, symmetries = (0 0 | 0 0), relative indices = ( 0  5 |  5  2)
( 0  5 |  5  3) =     0.0004631541, symmetries = (0 0 | 0 0), relative indices = ( 0  5 |  5  3)
( 0  5 |  5  4) =    -0.0000000000, symmetries = (0 0 | 0 0), relative indices = ( 0  5 |  5  4)
( 0  5 |  5  5) =    -0.0079719012, symmetries = (0 0 | 0 0), relative indices = ( 0  5 |  5  5)
( 0  5 |  5  6) =     0.0000000000, symmetries = (0 0 | 0 0), relative indices = ( 0  5 |  5  6)
( 0  5 |  6  0) =     0.0000000000, symmetries = (0 0 | 0 0), relative indices = ( 0  5 |  6  0)
( 0  5 |  6  1) =     0.0000000000, symmetries = (0 0 | 0 0), relative indices = ( 0  5 |  6  1)
( 0  5 |  6  2) =     0.0075651940, symmetries = (0 0 | 0 0), relative indices = ( 0  5 |  6  2)
( 0  5 |  6  3) =     0.0000000000, symmetries = (0 0 | 0 0), relative indices = ( 0  5 |  6  3)
( 0  5 |  6  4) =    -0.0000000000, symmetries = (0 0 | 0 0), relative indices = ( 0  5 |  6  4)
( 0  5 |  6  5) =     0.0000000000, symmetries = (0 0 | 0 0), relative indices = ( 0  5 |  6  5)
( 0  5 |  6  6) =     0.0057612146, symmetries = (0 0 | 0 0), relative indices = ( 0  5 |  6  6)
( 0  6 |  0  0) =     0.0000000000, symmetries = (0 0 | 0 0), relative indices = ( 0  6 |  0  0)
( 0  6 |  0  1) =     0.0000000000, symmetries = (0 0 | 0 0), relative indices = ( 0  6 |  0  1)
( 0  6 |  0  2) =     0.0158450346, symmetries = (0 0 | 0 0), relative indices = ( 0  6 |  0  2)
( 0  6 |  0  3) =     0.0000000000, symmetries = (0 0 | 0 0), relative indices = ( 0  6 |  0  3)
( 0  6 |  0  4) =    -0.0000000000, symmetries = (0 0 | 0 0), relative indices = ( 0  6 |  0  4)
( 0  6 |  0  5) =     0.0000000000, symmetries = (0 0 | 0 0), relative indices = ( 0  6 |  0  5)
( 0  6 |  0  6) =     0.0222847904, symmetries = (0 0 | 0 0), relative indices = ( 0  6 |  0  6)
( 0  6 |  1  0) =     0.0000000000, symmetries = (0 0 | 0 0), relative indices = ( 0  6 |  1  0)
( 0  6 |  1  1) =    -0.0000000000, symmetries = (0 0 | 0 0), relative indices = ( 0  6 |  1  1)
( 0  6 |  1  2) =    -0.0237726462, symmetries = (0 0 | 0 0), relative indices = ( 0  6 |  1  2)
( 0  6 |  1  3) =     0.0000000000, symmetries = (0 0 | 0 0), relative indices = ( 0  6 |  1  3)
( 0  6 |  1  4) =     0.0000000000, symmetries = (0 0 | 0 0), relative indices = ( 0  6 |  1  4)
( 0  6 |  1  5) =     0.0000000000, symmetries = (0 0 | 0 0), relative indices = ( 0  6 |  1  5)
( 0  6 |  1  6) =    -0.0178569280, symmetries = (0 0 | 0 0), relative indices = ( 0  6 |  1  6)
( 0  6 |  2  0) =     0.0158450346, symmetries = (0 0 | 0 0), relative indices = ( 0  6 |  2  0)
( 0  6 |  2  1) =    -0.0237726462, symmetries = (0 0 | 0 0), relative indices = ( 0  6 |  2  1)
( 0  6 |  2  2) =     0.0000000000, symmetries = (0 0 | 0 0), relative indices = ( 0  6 |  2  2)
( 0  6 |  2  3) =    -0.0056423988, symmetries = (0 0 | 0 0), relative indices = ( 0  6 |  2  3)
( 0  6 |  2  4) =     0.0000000000, symmetries = (0 0 | 0 0), relative indices = ( 0  6 |  2  4)
( 0  6 |  2  5) =    -0.0042409067, symmetries = (0 0 | 0 0), relative indices = ( 0  6 |  2  5)
( 0  6 |  2  6) =     0.0000000000, symmetries = (0 0 | 0 0), relative indices = ( 0  6 |  2  6)
( 0  6 |  3  0) =     0.0000000000, symmetries = (0 0 | 0 0), relative indices = ( 0  6 |  3  0)
( 0  6 |  3  1) =     0.0000000000, symmetries = (0 0 | 0 0), relative indices = ( 0  6 |  3  1)
( 0  6 |  3  2) =    -0.0056423988, symmetries = (0 0 | 0 0), relative indices = ( 0  6 |  3  2)
( 0  6 |  3  3) =     0.0000000000, symmetries = (0 0 | 0 0), relative indices = ( 0  6 |  3  3)
( 0  6 |  3  4) =     0.0000000000, symmetries = (0 0 | 0 0), relative indices = ( 0  6 |  3  4)
( 0  6 |  3  5) =     0.0000000000, symmetries = (0 0 | 0 0), relative indices = ( 0  6 |  3  5)
( 0  6 |  3  6) =    -0.0139681056, symmetries = (0 0 | 0 0), relative indices = ( 0  6 |  3  6)
( 0  6 |  4  0) =    -0.0000000000, symmetries = (0 0 | 0 0), relative indices = ( 0  6 |  4  0)
( 0  6 |  4  1) =     0.0000000000, symmetries = (0 0 | 0 0), relative indices = ( 0  6 |  4  1)
( 0  6 |  4  2) =     0.0000000000, symmetries = (0 0 | 0 0), relative indices = ( 0  6 |  4  2)
( 0  6 |  4  3) =     0.0000000000, symmetries = (0 0 | 0 0), relative indices = ( 0  6 |  4  3)
( 0  6 |  4  4) =    -0.0000000000, symmetries = (0 0 | 0 0), relative indices = ( 0  6 |  4  4)
( 0  6 |  4  5) =    -0.0000000000, symmetries = (0 0 | 0 0), relative indices = ( 0  6 |  4  5)
( 0  6 |  4  6) =     0.0000000000, symmetries = (0 0 | 0 0), relative indices = ( 0  6 |  4  6)
( 0  6 |  5  0) =     0.0000000000, symmetries = (0 0 | 0 0), relative indices = ( 0  6 |  5  0)
( 0  6 |  5  1) =     0.0000000000, symmetries = (0 0 | 0 0), relative indices = ( 0  6 |  5  1)
( 0  6 |  5  2) =    -0.0042409067, symmetries = (0 0 | 0 0), relative indices = ( 0  6 |  5  2)
( 0  6 |  5  3) =     0.0000000000, symmetries = (0 0 | 0 0), relative indices = ( 0  6 |  5  3)
( 0  6 |  5  4) =    -0.0000000000, symmetries = (0 0 | 0 0), relative indices = ( 0  6 |  5  4)
( 0  6 |  5  5) =     0.0000000000, symmetries = (0 0 | 0 0), relative indices = ( 0  6 |  5  5)
( 0  6 |  5  6) =    -0.0130349693, symmetries = (0 0 | 0 0), relative indices = ( 0  6 |  5  6)
( 0  6 |  6  0) =     0.0222847904, symmetries = (0 0 | 0 0), relative indices = ( 0  6 |  6  0)
( 0  6 |  6  1) =    -0.0178569280, symmetries = (0 0 | 0 0), relative indices = ( 0  6 |  6  1)
( 0  6 |  6  2) =     0.0000000000, symmetries = (0 0 | 0 0), relative indices = ( 0  6 |  6  2)
( 0  6 |  6  3) =    -0.0139681056, symmetries = (0 0 | 0 0), relative indices = ( 0  6 |  6  3)
( 0  6 |  6  4) =     0.0000000000, symmetries = (0 0 | 0 0), relative indices = ( 0  6 |  6  4)
( 0  6 |  6  5) =    -0.0130349693, symmetries = (0 0 | 0 0), relative indices = ( 0  6 |  6  5)
( 0  6 |  6  6) =    -0.0000000000, symmetries = (0 0 | 0 0), relative indices = ( 0  6 |  6  6)
( 1  0 |  0  0) =     0.4129097416, symmetries = (0 0 | 0 0), relative indices = ( 1  0 |  0  0)
( 1  0 |  0  1) =     0.0573585617, symmetries = (0 0 | 0 0), relative indices = ( 1  0 |  0  1)
( 1  0 |  0  2) =    -0.0000000000, symmetries = (0 0 | 0 0), relative indices = ( 1  0 |  0  2)
( 1  0 |  0  3) =     0.0223818808, symmetries = (0 0 | 0 0), relative indices = ( 1  0 |  0  3)
( 1  0 |  0  4) =    -0.0000000000, symmetries = (0 0 | 0 0), relative indices = ( 1  0 |  0  4)
( 1  0 |  0  5) =     0.0380413322, symmetries = (0 0 | 0 0), relative indices = ( 1  0 |  0  5)
( 1  0 |  0  6) =     0.0000000000, symmetries = (0 0 | 0 0), relative indices = ( 1  0 |  0  6)
( 1  0 |  1  0) =     0.0573585617, symmetries = (0 0 | 0 0), relative indices = ( 1  0 |  1  0)
( 1  0 |  1  1) =     0.0120572722, symmetries = (0 0 | 0 0), relative indices = ( 1  0 |  1  1)
( 1  0 |  1  2) =    -0.0000000000, symmetries = (0 0 | 0 0), relative indices = ( 1  0 |  1  2)
( 1  0 |  1  3) =     0.0096234658, symmetries = (0 0 | 0 0), relative indices = ( 1  0 |  1  3)
( 1  0 |  1  4) =    -0.0000000000, symmetries = (0 0 | 0 0), relative indices = ( 1  0 |  1  4)
( 1  0 |  1  5) =     0.0068476121, symmetries = (0 0 | 0 0), relative indices = ( 1  0 |  1  5)
( 1  0 |  1  6) =     0.0000000000, symmetries = (0 0 | 0 0), relative indices = ( 1  0 |  1  6)
( 1  0 |  2  0) =    -0.0000000000, symmetries = (0 0 | 0 0), relative indices = ( 1  0 |  2  0)
( 1  0 |  2  1) =    -0.0000000000, symmetries = (0 0 | 0 0), relative indices = ( 1  0 |  2  1)
( 1  0 |  2  2) =     0.0043449315, symmetries = (0 0 | 0 0), relative indices = ( 1  0 |  2  2)
( 1  0 |  2  3) =    -0.0000000000, symmetries = (0 0 | 0 0), relative indices = ( 1  0 |  2  3)
( 1  0 |  2  4) =     0.0000000000, symmetries = (0 0 | 0 0), relative indices = ( 1  0 |  2  4)
( 1  0 |  2  5) =    -0.0000000000, symmetries = (0 0 | 0 0), relative indices = ( 1  0 |  2  5)
( 1  0 |  2  6) =     0.0078391872, symmetries = (0 0 | 0 0), relative indices = ( 1  0 |  2  6)
( 1  0 |  3  0) =     0.0223818808, symmetries = (0 0 | 0 0), relative indices = ( 1  0 |  3  0)
( 1  0 |  3  1) =     0.0096234658, symmetries = (0 0 | 0 0), relative indices = ( 1  0 |  3  1)
( 1  0 |  3  2) =    -0.0000000000, symmetries = (0 0 | 0 0), relative indices = ( 1  0 |  3  2)
( 1  0 |  3  3) =     0.0145744964, symmetries = (0 0 | 0 0), relative indices = ( 1  0 |  3  3)
( 1  0 |  3  4) =    -0.0000000000, symmetries = (0 0 | 0 0), relative indices = ( 1  0 |  3  4)
( 1  0 |  3  5) =    -0.0016703298, symmetries = (0 0 | 0 0), relative indices = ( 1  0 |  3  5)
( 1  0 |  3  6) =    -0.0000000000, symmetries = (0 0 | 0 0), relative indices = ( 1  0 |  3  6)
( 1  0 |  4  0) =    -0.0000000000, symmetries = (0 0 | 0 0), relative indices = ( 1  0 |  4  0)
( 1  0 |  4  1) =    -0.0000000000, symmetries = (0 0 | 0 0), relative indices = ( 1  0 |  4  1)
( 1  0 |  4  2) =     0.0000000000, symmetries = (0 0 | 0 0), relative indices = ( 1  0 |  4  2)
( 1  0 |  4  3) =    -0.0000000000, symmetries = (0 0 | 0 0), relative indices = ( 1  0 |  4  3)
( 1  0 |  4  4) =     0.0115514358, symmetries = (0 0 | 0 0), relative indices = ( 1  0 |  4  4)
( 1  0 |  4  5) =    -0.0000000000, symmetries = (0 0 | 0 0), relative indices = ( 1  0 |  4  5)
( 1  0 |  4  6) =    -0.0000000000, symmetries = (0 0 | 0 0), relative indices = ( 1  0 |  4  6)
( 1  0 |  5  0) =     0.0380413322, symmetries = (0 0 | 0 0), relative indices = ( 1  0 |  5  0)
( 1  0 |  5  1) =     0.0068476121, symmetries = (0 0 | 0 0), relative indices = ( 1  0 |  5  1)
( 1  0 |  5  2) =    -0.0000000000, symmetries = (0 0 | 0 0), relative indices = ( 1  0 |  5  2)
( 1  0 |  5  3) =    -0.0016703298, symmetries = (0 0 | 0 0), relative indices = ( 1  0 |  5  3)
( 1  0 |  5  4) =    -0.0000000000, symmetries = (0 0 | 0 0), relative indices = ( 1  0 |  5  4)
( 1  0 |  5  5) =     0.0067634359, symmetries = (0 0 | 0 0), relative indices = ( 1  0 |  5  5)
( 1  0 |  5  6) =    -0.0000000000, symmetries = (0 0 | 0 0), relative indices = ( 1  0 |  5  6)
( 1  0 |  6  0) =     0.0000000000, symmetries = (0 0 | 0 0), relative indices = ( 1  0 |  6  0)
( 1  0 |  6  1) =     0.0000000000, symmetries = (0 0 | 0 0), relative indices = ( 1  0 |  6  1)
( 1  0 |  6  2) =     0.0078391872, symmetries = (0 0 | 0 0), relative indices = ( 1  0 |  6  2)
( 1  0 |  6  3) =    -0.0000000000, symmetries = (0 0 | 0 0), relative indices = ( 1  0 |  6  3)
( 1  0 |  6  4) =    -0.0000000000, symmetries = (0 0 | 0 0), relative indices = ( 1  0 |  6  4)
( 1  0 |  6  5) =    -0.0000000000, symmetries = (0 0 | 0 0), relative indices = ( 1  0 |  6  5)
( 1  0 |  6  6) =     0.0096645370, symmetries = (0 0 | 0 0), relative indices = ( 1  0 |  6  6)
( 1  1 |  0  0) =     1.0026477975, symmetries = (0 0 | 0 0), relative indices = ( 1  1 |  0  0)
( 1  1 |  0  1) =     0.0120572722, symmetries = (0 0 | 0 0), relative indices = ( 1  1 |  0  1)
( 1  1 |  0  2) =    -0.0000000000, symmetries = (0 0 | 0 0), relative indices = ( 1  1 |  0  2)
( 1  1 |  0  3) =     0.0176203958, symmetries = (0 0 | 0 0), relative indices = ( 1  1 |  0  3)
( 1  1 |  0  4) =    -0.0000000000, symmetries = (0 0 | 0 0), relative indices = ( 1  1 |  0  4)
( 1  1 |  0  5) =     0.0002470580, symmetries = (0 0 | 0 0), relative indices = ( 1  1 |  0  5)
( 1  1 |  0  6) =    -0.0000000000, symmetries = (0 0 | 0 0), relative indices = ( 1  1 |  0  6)
( 1  1 |  1  0) =     0.0120572722, symmetries = (0 0 | 0 0), relative indices = ( 1  1 |  1  0)
( 1  1 |  1  1) =     0.7350859925, symmetries = (0 0 | 0 0), relative indices = ( 1  1 |  1  1)
( 1  1 |  1  2) =     0.0000000000, symmetries = (0 0 | 0 0), relative indices = ( 1  1 |  1  2)
( 1  1 |  1  3) =    -0.0160292259, symmetries = (0 0 | 0 0), relative indices = ( 1  1 |  1  3)
( 1  1 |  1  4) =     0.0000000000, symmetries = (0 0 | 0 0), relative indices = ( 1  1 |  1  4)
( 1  1 |  1  5) =     0.1462368784, symmetries = (0 0 | 0 0), relative indices = ( 1  1 |  1  5)
( 1  1 |  1  6) =     0.0000000000, symmetries = (0 0 | 0 0), relative indices = ( 1  1 |  1  6)
( 1  1 |  2  0) =    -0.0000000000, symmetries = (0 0 | 0 0), relative indices = ( 1  1 |  2  0)
( 1  1 |  2  1) =     0.0000000000, symmetries = (0 0 | 0 0), relative indices = ( 1  1 |  2  1)
( 1  1 |  2  2) =     0.6586577316, symmetries = (0 0 | 0 0), relative indices = ( 1  1 |  2  2)
( 1  1 |  2  3) =    -0.0000000000, symmetries = (0 0 | 0 0), relative indices = ( 1  1 |  2  3)
( 1  1 |  2  4) =     0.0000000000, symmetries = (0 0 | 0 0), relative indices = ( 1  1 |  2  4)
( 1  1 |  2  5) =    -0.0000000000, symmetries = (0 0 | 0 0), relative indices = ( 1  1 |  2  5)
( 1  1 |  2  6) =     0.1284962522, symmetries = (0 0 | 0 0), relative indices = ( 1  1 |  2  6)
( 1  1 |  3  0) =     0.0176203958, symmetries = (0 0 | 0 0), relative indices = ( 1  1 |  3  0)
( 1  1 |  3  1) =    -0.0160292259, symmetries = (0 0 | 0 0), relative indices = ( 1  1 |  3  1)
( 1  1 |  3  2) =    -0.0000000000, symmetries = (0 0 | 0 0), relative indices = ( 1  1 |  3  2)
( 1  1 |  3  3) =     0.6797246280, symmetries = (0 0 | 0 0), relative indices = ( 1  1 |  3  3)
( 1  1 |  3  4) =     0.0000000000, symmetries = (0 0 | 0 0), relative indices = ( 1  1 |  3  4)
( 1  1 |  3  5) =    -0.0849970956, symmetries = (0 0 | 0 0), relative indices = ( 1  1 |  3  5)
( 1  1 |  3  6) =    -0.0000000000, symmetries = (0 0 | 0 0), relative indices = ( 1  1 |  3  6)
( 1  1 |  4  0) =    -0.0000000000, symmetries = (0 0 | 0 0), relative indices = ( 1  1 |  4  0)
( 1  1 |  4  1) =     0.0000000000, symmetries = (0 0 | 0 0), relative indices = ( 1  1 |  4  1)
( 1  1 |  4  2) =     0.0000000000, symmetries = (0 0 | 0 0), relative indices = ( 1  1 |  4  2)
( 1  1 |  4  3) =     0.0000000000, symmetries = (0 0 | 0 0), relative indices = ( 1  1 |  4  3)
( 1  1 |  4  4) =     0.7468158948, symmetries = (0 0 | 0 0), relative indices = ( 1  1 |  4  4)
( 1  1 |  4  5) =     0.0000000000, symmetries = (0 0 | 0 0), relative indices = ( 1  1 |  4  5)
( 1  1 |  4  6) =     0.0000000000, symmetries = (0 0 | 0 0), relative indices = ( 1  1 |  4  6)
( 1  1 |  5  0) =     0.0002470580, symmetries = (0 0 | 0 0), relative indices = ( 1  1 |  5  0)
( 1  1 |  5  1) =     0.1462368784, symmetries = (0 0 | 0 0), relative indices = ( 1  1 |  5  1)
( 1  1 |  5  2) =    -0.0000000000, symmetries = (0 0 | 0 0), relative indices = ( 1  1 |  5  2)
( 1  1 |  5  3) =    -0.0849970956, symmetries = (0 0 | 0 0), relative indices = ( 1  1 |  5  3)
( 1  1 |  5  4) =     0.0000000000, symmetries = (0 0 | 0 0), relative indices = ( 1  1 |  5  4)
( 1  1 |  5  5) =     0.6229834423, symmetries = (0 0 | 0 0), relative indices = ( 1  1 |  5  5)
( 1  1 |  5  6) =     0.0000000000, symmetries = (0 0 | 0 0), relative indices = ( 1  1 |  5  6)
( 1  1 |  6  0) =    -0.0000000000, symmetries = (0 0 | 0 0), relative indices = ( 1  1 |  6  0)
( 1  1 |  6  1) =     0.0000000000, symmetries = (0 0 | 0 0), relative indices = ( 1  1 |  6  1)
( 1  1 |  6  2) =     0.1284962522, symmetries = (0 0 | 0 0), relative indices = ( 1  1 |  6  2)
( 1  1 |  6  3) =    -0.0000000000, symmetries = (0 0 | 0 0), relative indices = ( 1  1 |  6  3)
( 1  1 |  6  4) =     0.0000000000, symmetries = (0 0 | 0 0), relative indices = ( 1  1 |  6  4)
( 1  1 |  6  5) =     0.0000000000, symmetries = (0 0 | 0 0), relative indices = ( 1  1 |  6  5)
( 1  1 |  6  6) =     0.6313365612, symmetries = (0 0 | 0 0), relative indices = ( 1  1 |  6  6)
( 1  2 |  0  0) =    -0.0000000000, symmetries = (0 0 | 0 0), relative indices = ( 1  2 |  0  0)
( 1  2 |  0  1) =    -0.0000000000, symmetries = (0 0 | 0 0), relative indices = ( 1  2 |  0  1)
( 1  2 |  0  2) =    -0.0183530360, symmetries = (0 0 | 0 0), relative indices = ( 1  2 |  0  2)
( 1  2 |  0  3) =     0.0000000000, symmetries = (0 0 | 0 0), relative indices = ( 1  2 |  0  3)
( 1  2 |  0  4) =    -0.0000000000, symmetries = (0 0 | 0 0), relative indices = ( 1  2 |  0  4)
( 1  2 |  0  5) =     0.0000000000, symmetries = (0 0 | 0 0), relative indices = ( 1  2 |  0  5)
( 1  2 |  0  6) =    -0.0237726462, symmetries = (0 0 | 0 0), relative indices = ( 1  2 |  0  6)
( 1  2 |  1  0) =    -0.0000000000, symmetries = (0 0 | 0 0), relative indices = ( 1  2 |  1  0)
( 1  2 |  1  1) =     0.0000000000, symmetries = (0 0 | 0 0), relative indices = ( 1  2 |  1  1)
( 1  2 |  1  2) =     0.1493520864, symmetries = (0 0 | 0 0), relative indices = ( 1  2 |  1  2)
( 1  2 |  1  3) =     0.0000000000, symmetries = (0 0 | 0 0), relative indices = ( 1  2 |  1  3)
( 1  2 |  1  4) =     0.0000000000, symmetries = (0 0 | 0 0), relative indices = ( 1  2 |  1  4)
( 1  2 |  1  5) =    -0.0000000000, symmetries = (0 0 | 0 0), relative indices = ( 1  2 |  1  5)
( 1  2 |  1  6) =     0.0343071161, symmetries = (0 0 | 0 0), relative indices = ( 1  2 |  1  6)
( 1  2 |  2  0) =    -0.0183530360, symmetries = (0 0 | 0 0), relative indices = ( 1  2 |  2  0)
( 1  2 |  2  1) =     0.1493520864, symmetries = (0 0 | 0 0), relative indices = ( 1  2 |  2  1)
( 1  2 |  2  2) =    -0.0000000000, symmetries = (0 0 | 0 0), relative indices = ( 1  2 |  2  2)
( 1  2 |  2  3) =    -0.0154251947, symmetries = (0 0 | 0 0), relative indices = ( 1  2 |  2  3)
( 1  2 |  2  4) =     0.0000000000, symmetries = (0 0 | 0 0), relative indices = ( 1  2 |  2  4)
( 1  2 |  2  5) =    -0.0402295290, symmetries = (0 0 | 0 0), relative indices = ( 1  2 |  2  5)
( 1  2 |  2  6) =    -0.0000000000, symmetries = (0 0 | 0 0), relative indices = ( 1  2 |  2  6)
( 1  2 |  3  0) =     0.0000000000, symmetries = (0 0 | 0 0), relative indices = ( 1  2 |  3  0)
( 1  2 |  3  1) =     0.0000000000, symmetries = (0 0 | 0 0), relative indices = ( 1  2 |  3  1)
( 1  2 |  3  2) =    -0.0154251947, symmetries = (0 0 | 0 0), relative indices = ( 1  2 |  3  2)
( 1  2 |  3  3) =    -0.0000000000, symmetries = (0 0 | 0 0), relative indices = ( 1  2 |  3  3)
( 1  2 |  3  4) =     0.0000000000, symmetries = (0 0 | 0 0), relative indices = ( 1  2 |  3  4)
( 1  2 |  3  5) =    -0.0000000000, symmetries = (0 0 | 0 0), relative indices = ( 1  2 |  3  5)
( 1  2 |  3  6) =     0.0778377577, symmetries = (0 0 | 0 0), relative indices = ( 1  2 |  3  6)
( 1  2 |  4  0) =    -0.0000000000, symmetries = (0 0 | 0 0), relative indices = ( 1  2 |  4  0)
( 1  2 |  4  1) =     0.0000000000, symmetries = (0 0 | 0 0), relative indices = ( 1  2 |  4  1)
( 1  2 |  4  2) =     0.0000000000, symmetries = (0 0 | 0 0), relative indices = ( 1  2 |  4  2)
( 1  2 |  4  3) =     0.0000000000, symmetries = (0 0 | 0 0), relative indices = ( 1  2 |  4  3)
( 1  2 |  4  4) =    -0.0000000000, symmetries = (0 0 | 0 0), relative indices = ( 1  2 |  4  4)
( 1  2 |  4  5) =     0.0000000000, symmetries = (0 0 | 0 0), relative indices = ( 1  2 |  4  5)
( 1  2 |  4  6) =    -0.0000000000, symmetries = (0 0 | 0 0), relative indices = ( 1  2 |  4  6)
( 1  2 |  5  0) =     0.0000000000, symmetries = (0 0 | 0 0), relative indices = ( 1  2 |  5  0)
( 1  2 |  5  1) =    -0.0000000000, symmetries = (0 0 | 0 0), relative indices = ( 1  2 |  5  1)
( 1  2 |  5  2) =    -0.0402295290, symmetries = (0 0 | 0 0), relative indices = ( 1  2 |  5  2)
( 1  2 |  5  3) =    -0.0000000000, symmetries = (0 0 | 0 0), relative indices = ( 1  2 |  5  3)
( 1  2 |  5  4) =     0.0000000000, symmetries = (0 0 | 0 0), relative indices = ( 1  2 |  5  4)
( 1  2 |  5  5) =    -0.0000000000, symmetries = (0 0 | 0 0), relative indices = ( 1  2 |  5  5)
( 1  2 |  5  6) =     0.1024791297, symmetries = (0 0 | 0 0), relative indices = ( 1  2 |  5  6)
( 1  2 |  6  0) =    -0.0237726462, symmetries = (0 0 | 0 0), relative indices = ( 1  2 |  6  0)
( 1  2 |  6  1) =     0.0343071161, symmetries = (0 0 | 0 0), relative indices = ( 1  2 |  6  1)
( 1  2 |  6  2) =    -0.0000000000, symmetries = (0 0 | 0 0), relative indices = ( 1  2 |  6  2)
( 1  2 |  6  3) =     0.0778377577, symmetries = (0 0 | 0 0), relative indices = ( 1  2 |  6  3)
( 1  2 |  6  4) =    -0.0000000000, symmetries = (0 0 | 0 0), relative indices = ( 1  2 |  6  4)
( 1  2 |  6  5) =     0.1024791297, symmetries = (0 0 | 0 0), relative indices = ( 1  2 |  6  5)
( 1  2 |  6  6) =     0.0000000000, symmetries = (0 0 | 0 0), relative indices = ( 1  2 |  6  6)
( 1  3 |  0  0) =     0.1167211006, symmetries = (0 0 | 0 0), relative indices = ( 1  3 |  0  0)
( 1  3 |  0  1) =     0.0096234658, symmetries = (0 0 | 0 0), relative indices = ( 1  3 |  0  1)
( 1  3 |  0  2) =    -0.0000000000, symmetries = (0 0 | 0 0), relative indices = ( 1  3 |  0  2)
( 1  3 |  0  3) =    -0.0191230742, symmetries = (0 0 | 0 0), relative indices = ( 1  3 |  0  3)
( 1  3 |  0  4) =    -0.0000000000, symmetries = (0 0 | 0 0), relative indices = ( 1  3 |  0  4)
( 1  3 |  0  5) =     0.0200014073, symmetries = (0 0 | 0 0), relative indices = ( 1  3 |  0  5)
( 1  3 |  0  6) =     0.0000000000, symmetries = (0 0 | 0 0), relative indices = ( 1  3 |  0  6)
( 1  3 |  1  0) =     0.0096234658, symmetries = (0 0 | 0 0), relative indices = ( 1  3 |  1  0)
( 1  3 |  1  1) =    -0.0160292259, symmetries = (0 0 | 0 0), relative indices = ( 1  3 |  1  1)
( 1  3 |  1  2) =     0.0000000000, symmetries = (0 0 | 0 0), relative indices = ( 1  3 |  1  2)
( 1  3 |  1  3) =     0.1199191223, symmetries = (0 0 | 0 0), relative indices = ( 1  3 |  1  3)
( 1  3 |  1  4) =     0.0000000000, symmetries = (0 0 | 0 0), relative indices = ( 1  3 |  1  4)
( 1  3 |  1  5) =    -0.0180719830, symmetries = (0 0 | 0 0), relative indices = ( 1  3 |  1  5)
( 1  3 |  1  6) =     0.0000000000, symmetries = (0 0 | 0 0), relative indices = ( 1  3 |  1  6)
( 1  3 |  2  0) =    -0.0000000000, symmetries = (0 0 | 0 0), relative indices = ( 1  3 |  2  0)
( 1  3 |  2  1) =     0.0000000000, symmetries = (0 0 | 0 0), relative indices = ( 1  3 |  2  1)
( 1  3 |  2  2) =    -0.0079744497, symmetries = (0 0 | 0 0), relative indices = ( 1  3 |  2  2)
( 1  3 |  2  3) =    -0.0000000000, symmetries = (0 0 | 0 0), relative indices = ( 1  3 |  2  3)
( 1  3 |  2  4) =     0.0000000000, symmetries = (0 0 | 0 0), relative indices = ( 1  3 |  2  4)
( 1  3 |  2  5) =    -0.0000000000, symmetries = (0 0 | 0 0), relative indices = ( 1  3 |  2  5)
( 1  3 |  2  6) =     0.0746026528, symmetries = (0 0 | 0 0), relative indices = ( 1  3 |  2  6)
( 1  3 |  3  0) =    -0.0191230742, symmetries = (0 0 | 0 0), relative indices = ( 1  3 |  3  0)
( 1  3 |  3  1) =     0.1199191223, symmetries = (0 0 | 0 0), relative indices = ( 1  3 |  3  1)
( 1  3 |  3  2) =    -0.0000000000, symmetries = (0 0 | 0 0), relative indices = ( 1  3 |  3  2)
( 1  3 |  3  3) =     0.1049202096, symmetries = (0 0 | 0 0), relative indices = ( 1  3 |  3  3)
( 1  3 |  3  4) =     0.0000000000, symmetries = (0 0 | 0 0), relative indices = ( 1  3 |  3  4)
( 1  3 |  3  5) =    -0.0235987957, symmetries = (0 0 | 0 0), relative indices = ( 1  3 |  3  5)
( 1  3 |  3  6) =     0.0000000000, symmetries = (0 0 | 0 0), relative indices = ( 1  3 |  3  6)
( 1  3 |  4  0) =    -0.0000000000, symmetries = (0 0 | 0 0), relative indices = ( 1  3 |  4  0)
( 1  3 |  4  1) =     0.0000000000, symmetries = (0 0 | 0 0), relative indices = ( 1  3 |  4  1)
( 1  3 |  4  2) =     0.0000000000, symmetries = (0 0 | 0 0), relative indices = ( 1  3 |  4  2)
( 1  3 |  4  3) =     0.0000000000, symmetries = (0 0 | 0 0), relative indices = ( 1  3 |  4  3)
( 1  3 |  4  4) =     0.0624020638, symmetries = (0 0 | 0 0), relative indices = ( 1  3 |  4  4)
( 1  3 |  4  5) =     0.0000000000, symmetries = (0 0 | 0 0), relative indices = ( 1  3 |  4  5)
( 1  3 |  4  6) =    -0.0000000000, symmetries = (0 0 | 0 0), relative indices = ( 1  3 |  4  6)
( 1  3 |  5  0) =     0.0200014073, symmetries = (0 0 | 0 0), relative indices = ( 1  3 |  5  0)
( 1  3 |  5  1) =    -0.0180719830, symmetries = (0 0 | 0 0), relative indices = ( 1  3 |  5  1)
( 1  3 |  5  2) =    -0.0000000000, symmetries = (0 0 | 0 0), relative indices = ( 1  3 |  5  2)
( 1  3 |  5  3) =    -0.0235987957, symmetries = (0 0 | 0 0), relative indices = ( 1  3 |  5  3)
( 1  3 |  5  4) =     0.0000000000, symmetries = (0 0 | 0 0), relative indices = ( 1  3 |  5  4)
( 1  3 |  5  5) =    -0.0619309832, symmetries = (0 0 | 0 0), relative indices = ( 1  3 |  5  5)
( 1  3 |  5  6) =    -0.0000000000, symmetries = (0 0 | 0 0), relative indices = ( 1  3 |  5  6)
( 1  3 |  6  0) =     0.0000000000, symmetries = (0 0 | 0 0), relative indices = ( 1  3 |  6  0)
( 1  3 |  6  1) =     0.0000000000, symmetries = (0 0 | 0 0), relative indices = ( 1  3 |  6  1)
( 1  3 |  6  2) =     0.0746026528, symmetries = (0 0 | 0 0), relative indices = ( 1  3 |  6  2)
( 1  3 |  6  3) =     0.0000000000, symmetries = (0 0 | 0 0), relative indices = ( 1  3 |  6  3)
( 1  3 |  6  4) =    -0.0000000000, symmetries = (0 0 | 0 0), relative indices = ( 1  3 |  6  4)
( 1  3 |  6  5) =    -0.0000000000, symmetries = (0 0 | 0 0), relative indices = ( 1  3 |  6  5)
( 1  3 |  6  6) =     0.0109674313, symmetries = (0 0 | 0 0), relative indices = ( 1  3 |  6  6)
( 1  4 |  0  0) =    -0.0000000000, symmetries = (0 0 | 0 0), relative indices = ( 1  4 |  0  0)
( 1  4 |  0  1) =    -0.0000000000, symmetries = (0 0 | 0 0), relative indices = ( 1  4 |  0  1)
( 1  4 |  0  2) =    -0.0000000000, symmetries = (0 0 | 0 0), relative indices = ( 1  4 |  0  2)
( 1  4 |  0  3) =    -0.0000000000, symmetries = (0 0 | 0 0), relative indices = ( 1  4 |  0  3)
( 1  4 |  0  4) =    -0.0322283186, symmetries = (0 0 | 0 0), relative indices = ( 1  4 |  0  4)
( 1  4 |  0  5) =    -0.0000000000, symmetries = (0 0 | 0 0), relative indices = ( 1  4 |  0  5)
( 1  4 |  0  6) =     0.0000000000, symmetries = (0 0 | 0 0), relative indices = ( 1  4 |  0  6)
( 1  4 |  1  0) =    -0.0000000000, symmetries = (0 0 | 0 0), relative indices = ( 1  4 |  1  0)
( 1  4 |  1  1) =     0.0000000000, symmetries = (0 0 | 0 0), relative indices = ( 1  4 |  1  1)
( 1  4 |  1  2) =     0.0000000000, symmetries = (0 0 | 0 0), relative indices = ( 1  4 |  1  2)
( 1  4 |  1  3) =     0.0000000000, symmetries = (0 0 | 0 0), relative indices = ( 1  4 |  1  3)
( 1  4 |  1  4) =     0.1426838446, symmetries = (0 0 | 0 0), relative indices = ( 1  4 |  1  4)
( 1  4 |  1  5) =     0.0000000000, symmetries = (0 0 | 0 0), relative indices = ( 1  4 |  1  5)
( 1  4 |  1  6) =     0.0000000000, symmetries = (0 0 | 0 0), relative indices = ( 1  4 |  1  6)
( 1  4 |  2  0) =    -0.0000000000, symmetries = (0 0 | 0 0), relative indices = ( 1  4 |  2  0)
( 1  4 |  2  1) =     0.0000000000, symmetries = (0 0 | 0 0), relative indices = ( 1  4 |  2  1)
( 1  4 |  2  2) =     0.0000000000, symmetries = (0 0 | 0 0), relative indices = ( 1  4 |  2  2)
( 1  4 |  2  3) =     0.0000000000, symmetries = (0 0 | 0 0), relative indices = ( 1  4 |  2  3)
( 1  4 |  2  4) =    -0.0000000000, symmetries = (0 0 | 0 0), relative indices = ( 1  4 |  2  4)
( 1  4 |  2  5) =     0.0000000000, symmetries = (0 0 | 0 0), relative indices = ( 1  4 |  2  5)
( 1  4 |  2  6) =    -0.0000000000, symmetries = (0 0 | 0 0), relative indices = ( 1  4 |  2  6)
( 1  4 |  3  0) =    -0.0000000000, symmetries = (0 0 | 0 0), relative indices = ( 1  4 |  3  0)
( 1  4 |  3  1) =     0.0000000000, symmetries = (0 0 | 0 0), relative indices = ( 1  4 |  3  1)
( 1  4 |  3  2) =     0.0000000000, symmetries = (0 0 | 0 0), relative indices = ( 1  4 |  3  2)
( 1  4 |  3  3) =     0.0000000000, symmetries = (0 0 | 0 0), relative indices = ( 1  4 |  3  3)
( 1  4 |  3  4) =     0.0473865988, symmetries = (0 0 | 0 0), relative indices = ( 1  4 |  3  4)
( 1  4 |  3  5) =     0.0000000000, symmetries = (0 0 | 0 0), relative indices = ( 1  4 |  3  5)
( 1  4 |  3  6) =    -0.0000000000, symmetries = (0 0 | 0 0), relative indices = ( 1  4 |  3  6)
( 1  4 |  4  0) =    -0.0322283186, symmetries = (0 0 | 0 0), relative indices = ( 1  4 |  4  0)
( 1  4 |  4  1) =     0.1426838446, symmetries = (0 0 | 0 0), relative indices = ( 1  4 |  4  1)
( 1  4 |  4  2) =    -0.0000000000, symmetries = (0 0 | 0 0), relative indices = ( 1  4 |  4  2)
( 1  4 |  4  3) =     0.0473865988, symmetries = (0 0 | 0 0), relative indices = ( 1  4 |  4  3)
( 1  4 |  4  4) =    -0.0000000000, symmetries = (0 0 | 0 0), relative indices = ( 1  4 |  4  4)
( 1  4 |  4  5) =     0.0617921145, symmetries = (0 0 | 0 0), relative indices = ( 1  4 |  4  5)
( 1  4 |  4  6) =     0.0000000000, symmetries = (0 0 | 0 0), relative indices = ( 1  4 |  4  6)
( 1  4 |  5  0) =    -0.0000000000, symmetries = (0 0 | 0 0), relative indices = ( 1  4 |  5  0)
( 1  4 |  5  1) =     0.0000000000, symmetries = (0 0 | 0 0), relative indices = ( 1  4 |  5  1)
( 1  4 |  5  2) =     0.0000000000, symmetries = (0 0 | 0 0), relative indices = ( 1  4 |  5  2)
( 1  4 |  5  3) =     0.0000000000, symmetries = (0 0 | 0 0), relative indices = ( 1  4 |  5  3)
( 1  4 |  5  4) =     0.0617921145, symmetries = (0 0 | 0 0), relative indices = ( 1  4 |  5  4)
( 1  4 |  5  5) =     0.0000000000, symmetries = (0 0 | 0 0), relative indices = ( 1  4 |  5  5)
( 1  4 |  5  6) =    -0.0000000000, symmetries = (0 0 | 0 0), relative indices = ( 1  4 |  5  6)
( 1  4 |  6  0) =     0.0000000000, symmetries = (0 0 | 0 0), relative indices = ( 1  4 |  6  0)
( 1  4 |  6  1) =     0.0000000000, symmetries = (0 0 | 0 0), relative indices = ( 1  4 |  6  1)
( 1  4 |  6  2) =    -0.0000000000, symmetries = (0 0 | 0 0), relative indices = ( 1  4 |  6  2)
( 1  4 |  6  3) =    -0.0000000000, symmetries = (0 0 | 0 0), relative indices = ( 1  4 |  6  3)
( 1  4 |  6  4) =     0.0000000000, symmetries = (0 0 | 0 0), relative indices = ( 1  4 |  6  4)
( 1  4 |  6  5) =    -0.0000000000, symmetries = (0 0 | 0 0), relative indices = ( 1  4 |  6  5)
( 1  4 |  6  6) =     0.0000000000, symmetries = (0 0 | 0 0), relative indices = ( 1  4 |  6  6)
( 1  5 |  0  0) =     0.3227477214, symmetries = (0 0 | 0 0), relative indices = ( 1  5 |  0  0)
( 1  5 |  0  1) =     0.0068476121, symmetries = (0 0 | 0 0), relative indices = ( 1  5 |  0  1)
( 1  5 |  0  2) =     0.0000000000, symmetries = (0 0 | 0 0), relative indices = ( 1  5 |  0  2)
( 1  5 |  0  3) =     0.0187172487, symmetries = (0 0 | 0 0), relative indices = ( 1  5 |  0  3)
( 1  5 |  0  4) =    -0.0000000000, symmetries = (0 0 | 0 0), relative indices = ( 1  5 |  0  4)
( 1  5 |  0  5) =    -0.0055376439, symmetries = (0 0 | 0 0), relative indices = ( 1  5 |  0  5)
( 1  5 |  0  6) =     0.0000000000, symmetries = (0 0 | 0 0), relative indices = ( 1  5 |  0  6)
( 1  5 |  1  0) =     0.0068476121, symmetries = (0 0 | 0 0), relative indices = ( 1  5 |  1  0)
( 1  5 |  1  1) =     0.1462368784, symmetries = (0 0 | 0 0), relative indices = ( 1  5 |  1  1)
( 1  5 |  1  2) =    -0.0000000000, symmetries = (0 0 | 0 0), relative indices = ( 1  5 |  1  2)
( 1  5 |  1  3) =    -0.0180719830, symmetries = (0 0 | 0 0), relative indices = ( 1  5 |  1  3)
( 1  5 |  1  4) =     0.0000000000, symmetries = (0 0 | 0 0), relative indices = ( 1  5 |  1  4)
( 1  5 |  1  5) =     0.1044749366, symmetries = (0 0 | 0 0), relative indices = ( 1  5 |  1  5)
( 1  5 |  1  6) =     0.0000000000, symmetries = (0 0 | 0 0), relative indices = ( 1  5 |  1  6)
( 1  5 |  2  0) =     0.0000000000, symmetries = (0 0 | 0 0), relative indices = ( 1  5 |  2  0)
( 1  5 |  2  1) =    -0.0000000000, symmetries = (0 0 | 0 0), relative indices = ( 1  5 |  2  1)
( 1  5 |  2  2) =     0.0801145066, symmetries = (0 0 | 0 0), relative indices = ( 1  5 |  2  2)
( 1  5 |  2  3) =    -0.0000000000, symmetries = (0 0 | 0 0), relative indices = ( 1  5 |  2  3)
( 1  5 |  2  4) =     0.0000000000, symmetries = (0 0 | 0 0), relative indices = ( 1  5 |  2  4)
( 1  5 |  2  5) =    -0.0000000000, symmetries = (0 0 | 0 0), relative indices = ( 1  5 |  2  5)
( 1  5 |  2  6) =     0.0789452383, symmetries = (0 0 | 0 0), relative indices = ( 1  5 |  2  6)
( 1  5 |  3  0) =     0.0187172487, symmetries = (0 0 | 0 0), relative indices = ( 1  5 |  3  0)
( 1  5 |  3  1) =    -0.0180719830, symmetries = (0 0 | 0 0), relative indices = ( 1  5 |  3  1)
( 1  5 |  3  2) =    -0.0000000000, symmetries = (0 0 | 0 0), relative indices = ( 1  5 |  3  2)
( 1  5 |  3  3) =     0.0980097438, symmetries = (0 0 | 0 0), relative indices = ( 1  5 |  3  3)
( 1  5 |  3  4) =     0.0000000000, symmetries = (0 0 | 0 0), relative indices = ( 1  5 |  3  4)
( 1  5 |  3  5) =    -0.0595673875, symmetries = (0 0 | 0 0), relative indices = ( 1  5 |  3  5)
( 1  5 |  3  6) =    -0.0000000000, symmetries = (0 0 | 0 0), relative indices = ( 1  5 |  3  6)
( 1  5 |  4  0) =    -0.0000000000, symmetries = (0 0 | 0 0), relative indices = ( 1  5 |  4  0)
( 1  5 |  4  1) =     0.0000000000, symmetries = (0 0 | 0 0), relative indices = ( 1  5 |  4  1)
( 1  5 |  4  2) =     0.0000000000, symmetries = (0 0 | 0 0), relative indices = ( 1  5 |  4  2)
( 1  5 |  4  3) =     0.0000000000, symmetries = (0 0 | 0 0), relative indices = ( 1  5 |  4  3)
( 1  5 |  4  4) =     0.1638662253, symmetries = (0 0 | 0 0), relative indices = ( 1  5 |  4  4)
( 1  5 |  4  5) =     0.0000000000, symmetries = (0 0 | 0 0), relative indices = ( 1  5 |  4  5)
( 1  5 |  4  6) =    -0.0000000000, symmetries = (0 0 | 0 0), relative indices = ( 1  5 |  4  6)
( 1  5 |  5  0) =    -0.0055376439, symmetries = (0 0 | 0 0), relative indices = ( 1  5 |  5  0)
( 1  5 |  5  1) =     0.1044749366, symmetries = (0 0 | 0 0), relative indices = ( 1  5 |  5  1)
( 1  5 |  5  2) =    -0.0000000000, symmetries = (0 0 | 0 0), relative indices = ( 1  5 |  5  2)
( 1  5 |  5  3) =    -0.0595673875, symmetries = (0 0 | 0 0), relative indices = ( 1  5 |  5  3)
( 1  5 |  5  4) =     0.0000000000, symmetries = (0 0 | 0 0), relative indices = ( 1  5 |  5  4)
( 1  5 |  5  5) =     0.0978491632, symmetries = (0 0 | 0 0), relative indices = ( 1  5 |  5  5)
( 1  5 |  5  6) =     0.0000000000, symmetries = (0 0 | 0 0), relative indices = ( 1  5 |  5  6)
( 1  5 |  6  0) =     0.0000000000, symmetries = (0 0 | 0 0), relative indices = ( 1  5 |  6  0)
( 1  5 |  6  1) =     0.0000000000, symmetries = (0 0 | 0 0), relative indices = ( 1  5 |  6  1)
( 1  5 |  6  2) =     0.0789452383, symmetries = (0 0 | 0 0), relative indices = ( 1  5 |  6  2)
( 1  5 |  6  3) =    -0.0000000000, symmetries = (0 0 | 0 0), relative indices = ( 1  5 |  6  3)
( 1  5 |  6  4) =    -0.0000000000, symmetries = (0 0 | 0 0), relative indices = ( 1  5 |  6  4)
( 1  5 |  6  5) =     0.0000000000, symmetries = (0 0 | 0 0), relative indices = ( 1  5 |  6  5)
( 1  5 |  6  6) =     0.0717736103, symmetries = (0 0 | 0 0), relative indices = ( 1  5 |  6  6)
( 1  6 |  0  0) =     0.0000000000, symmetries = (0 0 | 0 0), relative indices = ( 1  6 |  0  0)
( 1  6 |  0  1) =     0.0000000000, symmetries = (0 0 | 0 0), relative indices = ( 1  6 |  0  1)
( 1  6 |  0  2) =    -0.0134908583, symmetries = (0 0 | 0 0), relative indices = ( 1  6 |  0  2)
( 1  6 |  0  3) =     0.0000000000, symmetries = (0 0 | 0 0), relative indices = ( 1  6 |  0  3)
( 1  6 |  0  4) =     0.0000000000, symmetries = (0 0 | 0 0), relative indices = ( 1  6 |  0  4)
( 1  6 |  0  5) =     0.0000000000, symmetries = (0 0 | 0 0), relative indices = ( 1  6 |  0  5)
( 1  6 |  0  6) =    -0.0178569280, symmetries = (0 0 | 0 0), relative indices = ( 1  6 |  0  6)
( 1  6 |  1  0) =     0.0000000000, symmetries = (0 0 | 0 0), relative indices = ( 1  6 |  1  0)
( 1  6 |  1  1) =     0.0000000000, symmetries = (0 0 | 0 0), relative indices = ( 1  6 |  1  1)
( 1  6 |  1  2) =     0.0343071161, symmetries = (0 0 | 0 0), relative indices = ( 1  6 |  1  2)
( 1  6 |  1  3) =     0.0000000000, symmetries = (0 0 | 0 0), relative indices = ( 1  6 |  1  3)
( 1  6 |  1  4) =     0.0000000000, symmetries = (0 0 | 0 0), relative indices = ( 1  6 |  1  4)
( 1  6 |  1  5) =     0.0000000000, symmetries = (0 0 | 0 0), relative indices = ( 1  6 |  1  5)
( 1  6 |  1  6) =     0.0594293863, symmetries = (0 0 | 0 0), relative indices = ( 1  6 |  1  6)
( 1  6 |  2  0) =    -0.0134908583, symmetries = (0 0 | 0 0), relative indices = ( 1  6 |  2  0)
( 1  6 |  2  1) =     0.0343071161, symmetries = (0 0 | 0 0), relative indices = ( 1  6 |  2  1)
( 1  6 |  2  2) =     0.0000000000, symmetries = (0 0 | 0 0), relative indices = ( 1  6 |  2  2)
( 1  6 |  2  3) =     0.0348038189, symmetries = (0 0 | 0 0), relative indices = ( 1  6 |  2  3)
( 1  6 |  2  4) =    -0.0000000000, symmetries = (0 0 | 0 0), relative indices = ( 1  6 |  2  4)
( 1  6 |  2  5) =     0.0369330295, symmetries = (0 0 | 0 0), relative indices = ( 1  6 |  2  5)
( 1  6 |  2  6) =     0.0000000000, symmetries = (0 0 | 0 0), relative indices = ( 1  6 |  2  6)
( 1  6 |  3  0) =     0.0000000000, symmetries = (0 0 | 0 0), relative indices = ( 1  6 |  3  0)
( 1  6 |  3  1) =     0.0000000000, symmetries = (0 0 | 0 0), relative indices = ( 1  6 |  3  1)
( 1  6 |  3  2) =     0.0348038189, symmetries = (0 0 | 0 0), relative indices = ( 1  6 |  3  2)
( 1  6 |  3  3) =     0.0000000000, symmetries = (0 0 | 0 0), relative indices = ( 1  6 |  3  3)
( 1  6 |  3  4) =    -0.0000000000, symmetries = (0 0 | 0 0), relative indices = ( 1  6 |  3  4)
( 1  6 |  3  5) =    -0.0000000000, symmetries = (0 0 | 0 0), relative indices = ( 1  6 |  3  5)
( 1  6 |  3  6) =     0.0161540153, symmetries = (0 0 | 0 0), relative indices = ( 1  6 |  3  6)
( 1  6 |  4  0) =     0.0000000000, symmetries = (0 0 | 0 0), relative indices = ( 1  6 |  4  0)
( 1  6 |  4  1) =     0.0000000000, symmetries = (0 0 | 0 0), relative indices = ( 1  6 |  4  1)
( 1  6 |  4  2) =    -0.0000000000, symmetries = (0 0 | 0 0), relative indices = ( 1  6 |  4  2)
( 1  6 |  4  3) =    -0.0000000000, symmetries = (0 0 | 0 0), relative indices = ( 1  6 |  4  3)
( 1  6 |  4  4) =     0.0000000000, symmetries = (0 0 | 0 0), relative indices = ( 1  6 |  4  4)
( 1  6 |  4  5) =    -0.0000000000, symmetries = (0 0 | 0 0), relative indices = ( 1  6 |  4  5)
( 1  6 |  4  6) =    -0.0000000000, symmetries = (0 0 | 0 0), relative indices = ( 1  6 |  4  6)
( 1  6 |  5  0) =     0.0000000000, symmetries = (0 0 | 0 0), relative indices = ( 1  6 |  5  0)
( 1  6 |  5  1) =     0.0000000000, symmetries = (0 0 | 0 0), relative indices = ( 1  6 |  5  1)
( 1  6 |  5  2) =     0.0369330295, symmetries = (0 0 | 0 0), relative indices = ( 1  6 |  5  2)
( 1  6 |  5  3) =    -0.0000000000, symmetries = (0 0 | 0 0), relative indices = ( 1  6 |  5  3)
( 1  6 |  5  4) =    -0.0000000000, symmetries = (0 0 | 0 0), relative indices = ( 1  6 |  5  4)
( 1  6 |  5  5) =     0.0000000000, symmetries = (0 0 | 0 0), relative indices = ( 1  6 |  5  5)
( 1  6 |  5  6) =    -0.0124497154, symmetries = (0 0 | 0 0), relative indices = ( 1  6 |  5  6)
( 1  6 |  6  0) =    -0.0178569280, symmetries = (0 0 | 0 0), relative indices = ( 1  6 |  6  0)
( 1  6 |  6  1) =     0.0594293863, symmetries = (0 0 | 0 0), relative indices = ( 1  6 |  6  1)
( 1  6 |  6  2) =     0.0000000000, symmetries = (0 0 | 0 0), relative indices = ( 1  6 |  6  2)
( 1  6 |  6  3) =     0.0161540153, symmetries = (0 0 | 0 0), relative indices = ( 1  6 |  6  3)
( 1  6 |  6  4) =    -0.0000000000, symmetries = (0 0 | 0 0), relative indices = ( 1  6 |  6  4)
( 1  6 |  6  5) =    -0.0124497154, symmetries = (0 0 | 0 0), relative indices = ( 1  6 |  6  5)
( 1  6 |  6  6) =     0.0000000000, symmetries = (0 0 | 0 0), relative indices = ( 1  6 |  6  6)
( 2  0 |  0  0) =    -0.0000000000, symmetries = (0 0 | 0 0), relative indices = ( 2  0 |  0  0)
( 2  0 |  0  1) =    -0.0000000000, symmetries = (0 0 | 0 0), relative indices = ( 2  0 |  0  1)
( 2  0 |  0  2) =     0.0113040544, symmetries = (0 0 | 0 0), relative indices = ( 2  0 |  0  2)
( 2  0 |  0  3) =    -0.0000000000, symmetries = (0 0 | 0 0), relative indices = ( 2  0 |  0  3)
( 2  0 |  0  4) =     0.0000000000, symmetries = (0 0 | 0 0), relative indices = ( 2  0 |  0  4)
( 2  0 |  0  5) =    -0.0000000000, symmetries = (0 0 | 0 0), relative indices = ( 2  0 |  0  5)
( 2  0 |  0  6) =     0.0158450346, symmetries = (0 0 | 0 0), relative indices = ( 2  0 |  0  6)
( 2  0 |  1  0) =    -0.0000000000, symmetries = (0 0 | 0 0), relative indices = ( 2  0 |  1  0)
( 2  0 |  1  1) =    -0.0000000000, symmetries = (0 0 | 0 0), relative indices = ( 2  0 |  1  1)
( 2  0 |  1  2) =    -0.0183530360, symmetries = (0 0 | 0 0), relative indices = ( 2  0 |  1  2)
( 2  0 |  1  3) =    -0.0000000000, symmetries = (0 0 | 0 0), relative indices = ( 2  0 |  1  3)
( 2  0 |  1  4) =    -0.0000000000, symmetries = (0 0 | 0 0), relative indices = ( 2  0 |  1  4)
( 2  0 |  1  5) =     0.0000000000, symmetries = (0 0 | 0 0), relative indices = ( 2  0 |  1  5)
( 2  0 |  1  6) =    -0.0134908583, symmetries = (0 0 | 0 0), relative indices = ( 2  0 |  1  6)
( 2  0 |  2  0) =     0.0113040544, symmetries = (0 0 | 0 0), relative indices = ( 2  0 |  2  0)
( 2  0 |  2  1) =    -0.0183530360, symmetries = (0 0 | 0 0), relative indices = ( 2  0 |  2  1)
( 2  0 |  2  2) =    -0.0000000000, symmetries = (0 0 | 0 0), relative indices = ( 2  0 |  2  2)
( 2  0 |  2  3) =    -0.0038764155, symmetries = (0 0 | 0 0), relative indices = ( 2  0 |  2  3)
( 2  0 |  2  4) =     0.0000000000, symmetries = (0 0 | 0 0), relative indices = ( 2  0 |  2  4)
( 2  0 |  2  5) =    -0.0033881365, symmetries = (0 0 | 0 0), relative indices = ( 2  0 |  2  5)
( 2  0 |  2  6) =     0.0000000000, symmetries = (0 0 | 0 0), relative indices = ( 2  0 |  2  6)
( 2  0 |  3  0) =    -0.0000000000, symmetries = (0 0 | 0 0), relative indices = ( 2  0 |  3  0)
( 2  0 |  3  1) =    -0.0000000000, symmetries = (0 0 | 0 0), relative indices = ( 2  0 |  3  1)
( 2  0 |  3  2) =    -0.0038764155, symmetries = (0 0 | 0 0), relative indices = ( 2  0 |  3  2)
( 2  0 |  3  3) =    -0.0000000000, symmetries = (0 0 | 0 0), relative indices = ( 2  0 |  3  3)
( 2  0 |  3  4) =    -0.0000000000, symmetries = (0 0 | 0 0), relative indices = ( 2  0 |  3  4)
( 2  0 |  3  5) =     0.0000000000, symmetries = (0 0 | 0 0), relative indices = ( 2  0 |  3  5)
( 2  0 |  3  6) =    -0.0102047457, symmetries = (0 0 | 0 0), relative indices = ( 2  0 |  3  6)
( 2  0 |  4  0) =     0.0000000000, symmetries = (0 0 | 0 0), relative indices = ( 2  0 |  4  0)
( 2  0 |  4  1) =    -0.0000000000, symmetries = (0 0 | 0 0), relative indices = ( 2  0 |  4  1)
( 2  0 |  4  2) =     0.0000000000, symmetries = (0 0 | 0 0), relative indices = ( 2  0 |  4  2)
( 2  0 |  4  3) =    -0.0000000000, symmetries = (0 0 | 0 0), relative indices = ( 2  0 |  4  3)
( 2  0 |  4  4) =    -0.0000000000, symmetries = (0 0 | 0 0), relative indices = ( 2  0 |  4  4)
( 2  0 |  4  5) =    -0.0000000000, symmetries = (0 0 | 0 0), relative indices = ( 2  0 |  4  5)
( 2  0 |  4  6) =     0.0000000000, symmetries = (0 0 | 0 0), relative indices = ( 2  0 |  4  6)
( 2  0 |  5  0) =    -0.0000000000, symmetries = (0 0 | 0 0), relative indices = ( 2  0 |  5  0)
( 2  0 |  5  1) =     0.0000000000, symmetries = (0 0 | 0 0), relative indices = ( 2  0 |  5  1)
( 2  0 |  5  2) =    -0.0033881365, symmetries = (0 0 | 0 0), relative indices = ( 2  0 |  5  2)
( 2  0 |  5  3) =     0.0000000000, symmetries = (0 0 | 0 0), relative indices = ( 2  0 |  5  3)
( 2  0 |  5  4) =    -0.0000000000, symmetries = (0 0 | 0 0), relative indices = ( 2  0 |  5  4)
[...]
   11     0.00000000000000     0.00000000000000     0.06240206377952     0.00000000000000     0.00000000000000
   12    -0.00000000000000     0.15423904884257    -0.00000000000000     0.32092838869701     0.00000000000001
   13     0.00000000000000     0.00000000000000     0.16386622526152     0.00000000000000    -0.00000000000000
   14     0.00000000000000    -0.00000000000000     0.00000000000000     0.00000000000000     0.00000000000000
   15    -0.00000000000000    -0.00000000000000    -0.00000000000000    -0.00000000000000    -0.00000000000000
   16     0.00000000000000     0.00000000000000    -0.00000000000000     0.00000000000000     0.00000000000000
   17     0.00000000000000     0.00000000000000     0.64097975592196     0.00000000000000    -0.00000000000000
   18    -0.00000000000000     0.00000000000000    -0.00000000000000     0.00000000000000     0.00000000000000
   19     0.00000000000000    -0.00000000000000     0.00000000000000    -0.00000000000000    -0.00000000000000
   20    -0.00000000000000     0.00000000000000    -0.00000000000000     0.00000000000000     0.00000000000000
   21     0.00000000000000     0.00000000000000     0.18464820592103    -0.00000000000000    -0.00000000000000
   22     0.00000000000000    -0.00000000000000     0.00523703450946    -0.00000000000000    -0.00000000000000
   23     0.00000000000000     0.00000000000000     0.06240206377952     0.00000000000000     0.00000000000000
   24    -0.00000000000000     0.00000000000000    -0.00000000000000     0.00000000000000     0.00000000000000
   25     0.00000000000000     0.00000000000000     0.74165125688838     0.00000000000000    -0.00000000000000
   26    -0.00000000000000     0.13255192861451     0.00000000000000     0.06080553894480     0.00000000000000
   27    -0.00000000000000     0.00000000000000    -0.10312462583603     0.00000000000000     0.00000000000000
   28     0.00000000000000    -0.00000000000000    -0.00000000000000    -0.00000000000000     0.00000000000000
   29     0.00000000000000    -0.04062137039398     0.00000000000000    -0.07601051665847    -0.00000000000000
   30    -0.00000000000000     0.15423904884257    -0.00000000000000     0.32092838869701     0.00000000000001
   31     0.00000000000000    -0.00000000000000     0.00000000000000    -0.00000000000000    -0.00000000000000
   32    -0.00000000000000     0.13255192861451     0.00000000000000     0.06080553894480     0.00000000000000
   33     0.00000000000000    -0.00000000000000     0.88015909337504     0.00000000000000    -0.00000000000000
   34    -0.00000000000000     0.03384224120641     0.00000000000000     0.16204304792370     0.00000000000000
   35    -0.00000000000000     0.00000000000000     0.00000000000000     0.00000000000000     0.00000000000000
   36     0.00000000000000    -0.00000000000000     0.00649869140034    -0.00000000000000     0.00000000000000
   37     0.00000000000000     0.00000000000000     0.16386622526152     0.00000000000000    -0.00000000000000
   38    -0.00000000000000     0.00000000000000    -0.00000000000000     0.00000000000000     0.00000000000000
   39    -0.00000000000000     0.00000000000000    -0.10312462583603     0.00000000000000     0.00000000000000
   40    -0.00000000000000     0.03384224120641     0.00000000000000     0.16204304792370     0.00000000000000
   41     0.00000000000000     0.00000000000000     0.59325447070859     0.00000000000000    -0.00000000000000
   42     0.00000000000000     0.00000000000000    -0.00000000000000    -0.00000000000000    -0.00000000000000
   43    -0.00000000000000     0.00000000000000    -0.00000000000000     0.00000000000000    -0.00000000000000
   44     0.00000000000000    -0.00000000000000     0.00000000000000     0.00000000000000     0.00000000000000
   45     0.00000000000000     0.00000000000000     0.18464820592103    -0.00000000000000    -0.00000000000000
   46     0.00000000000000    -0.00000000000000    -0.00000000000000    -0.00000000000000     0.00000000000000
   47    -0.00000000000000     0.00000000000000     0.00000000000000     0.00000000000000     0.00000000000000
   48     0.00000000000000     0.00000000000000    -0.00000000000000    -0.00000000000000    -0.00000000000000
   49     0.00000000000000     0.00000000000000     0.63104936919282     0.00000000000000    -0.00000000000000

                36                  37                  38                  39                  40

    1    -0.13476807121695    -0.52124214353174    -0.14109897498275    -0.06842753920061     0.00000000000000
    2     0.01808579634827     0.00130137562018    -0.00011682266884    -0.01401994385444     0.00000000000000
    3    -0.00000000000000     0.00000000000000     0.02858194868922     0.00000000000000     0.00000000000000
    4    -0.02268495009305     0.01536245609765    -0.00263786450949     0.05221528066214    -0.00000000000000
    5     0.00000000000000    -0.00000000000000     0.00000000000000    -0.00000000000000     0.04249380244251
    6     0.03162787288601    -0.00869665095114     0.00140473034514    -0.04385044570866     0.00000000000000
    7    -0.00000000000000     0.00000000000000     0.03703054063793     0.00000000000000    -0.00000000000000
    8     0.01808579634827     0.00130137562018    -0.00011682266884    -0.01401994385444     0.00000000000000
    9    -0.12160558332593    -0.51758737232210    -0.12925525810414     0.17612231266351    -0.00000000000000
   10     0.00000000000000    -0.00000000000000    -0.29093282899906    -0.00000000000000     0.00000000000000
   11     0.02430020924396    -0.02893722378469     0.01442007500600    -0.28085353496863     0.00000000000000
   12    -0.00000000000000     0.00000000000000    -0.00000000000000     0.00000000000000    -0.19734415971381
   13    -0.05293945099236     0.01131247724169    -0.01607985016875     0.05615526215349    -0.00000000000000
   14    -0.00000000000000    -0.00000000000000    -0.01825426113110    -0.00000000000000    -0.00000000000000
   15    -0.00000000000000     0.00000000000000     0.02858194868922     0.00000000000000     0.00000000000000
   16     0.00000000000000    -0.00000000000000    -0.29093282899906    -0.00000000000000     0.00000000000000
   17    -0.09788283053490    -0.53875357331011    -0.12009967532625     0.15766977389366    -0.00000000000000
   18     0.00000000000000    -0.00000000000000     0.06305453506167     0.00000000000000    -0.00000000000000
   19    -0.00000000000000    -0.00000000000000    -0.00000000000000    -0.00000000000000     0.00000000000000
   20     0.00000000000000    -0.00000000000000     0.12718639404988     0.00000000000000    -0.00000000000000
   21    -0.03157715838761    -0.02416291063226    -0.00545588904135    -0.15747328808932     0.00000000000000
   22    -0.02268495009305     0.01536245609765    -0.00263786450949     0.05221528066214    -0.00000000000000
   23     0.02430020924396    -0.02893722378469     0.01442007500600    -0.28085353496863     0.00000000000000
   24     0.00000000000000    -0.00000000000000     0.06305453506167     0.00000000000000    -0.00000000000000
   25    -0.08404131587083    -0.55965683435372    -0.11340568867943    -0.14254252701134     0.00000000000000
   26    -0.00000000000000     0.00000000000000    -0.00000000000000     0.00000000000000    -0.05146622581970
   27     0.02652758503508     0.00443260141084     0.00589587691548     0.06706963788488    -0.00000000000000
   28     0.00000000000000    -0.00000000000000    -0.15655398147962    -0.00000000000000     0.00000000000000
   29     0.00000000000000    -0.00000000000000     0.00000000000000    -0.00000000000000     0.04249380244251
   30    -0.00000000000000     0.00000000000000    -0.00000000000000     0.00000000000000    -0.19734415971381
   31    -0.00000000000000    -0.00000000000000    -0.00000000000000    -0.00000000000000     0.00000000000000
   32    -0.00000000000000     0.00000000000000    -0.00000000000000     0.00000000000000    -0.05146622581970
   33    -0.12384100186840    -0.51216445854261    -0.12108526870765     0.01269549066011     0.00000000000000
   34    -0.00000000000000    -0.00000000000000    -0.00000000000000    -0.00000000000000    -0.08131574089114
   35    -0.00000000000000    -0.00000000000000     0.00000000000000     0.00000000000000    -0.00000000000000
   36     0.03162787288601    -0.00869665095114     0.00140473034514    -0.04385044570866     0.00000000000000
   37    -0.05293945099236     0.01131247724169    -0.01607985016875     0.05615526215349    -0.00000000000000
   38     0.00000000000000    -0.00000000000000     0.12718639404988     0.00000000000000    -0.00000000000000
   39     0.02652758503508     0.00443260141084     0.00589587691548     0.06706963788488    -0.00000000000000
   40    -0.00000000000000    -0.00000000000000    -0.00000000000000    -0.00000000000000    -0.08131574089114
   41    -0.11407276932987    -0.46768428116911    -0.11885788806990     0.26274398475140    -0.00000000000000
   42     0.00000000000000     0.00000000000000    -0.23617640799114    -0.00000000000000     0.00000000000000
   43    -0.00000000000000     0.00000000000000     0.03703054063793     0.00000000000000    -0.00000000000000
   44    -0.00000000000000    -0.00000000000000    -0.01825426113110    -0.00000000000000    -0.00000000000000
   45    -0.03157715838761    -0.02416291063226    -0.00545588904135    -0.15747328808932     0.00000000000000
   46     0.00000000000000    -0.00000000000000    -0.15655398147962    -0.00000000000000     0.00000000000000
   47    -0.00000000000000    -0.00000000000000     0.00000000000000     0.00000000000000    -0.00000000000000
   48     0.00000000000000     0.00000000000000    -0.23617640799114    -0.00000000000000     0.00000000000000
   49    -0.09559910183641    -0.52583319043935    -0.11527784127567     0.11256221819420    -0.00000000000000

                41                  42                  43                  44                  45

    1     0.81135433846651     0.28697974303530     0.00226887168999     0.05499183258515    -0.12269509431974
    2     0.00676343593141     0.00023760441554     0.00000187850866     0.00004553039912     0.00718019687336
    3    -0.00000000000000     0.02438056668037     0.03188282275288    -0.02230984654150     0.00000000000000
    4     0.02236425822926     0.00536512529017     0.00004241686453     0.00102807978234    -0.00640768988955
    5    -0.00000000000000    -0.00000000000000    -0.00000000000000    -0.00000000000000     0.00000000000000
    6    -0.00797190120807    -0.00285706649203    -0.00002258806567    -0.00054747878910     0.00979324547929
    7     0.00000000000000     0.03180188757663     0.04482100765086    -0.02961989256061     0.00000000000000
    8     0.00676343593141     0.00023760441554     0.00000187850866     0.00004553039912     0.00718019687336
    9     0.62298344234017     0.26289093001011     0.00207842470812     0.05037586924555    -0.29595756498342
   10    -0.00000000000000    -0.09483124555800    -0.04829503140175     0.05044241311823    -0.00000000000001
   11    -0.06193098316937    -0.02932884112219    -0.00023187482370    -0.00562007166028     0.09195062719959
   12     0.00000000000000     0.00000000000000     0.00000000000000     0.00000000000000    -0.00000000000000
   13     0.09784916320637     0.03270464062576     0.00025856401034     0.00626695146851     0.03195434808997
   14     0.00000000000000    -0.09941790404121    -0.03649985741311     0.09980804569666    -0.00000000000000
   15    -0.00000000000000     0.02438056668037     0.03188282275288    -0.02230984654150     0.00000000000000
   16    -0.00000000000000    -0.09483124555800    -0.04829503140175     0.05044241311823    -0.00000000000001
   17     0.57964073114776     0.24426948507574     0.00193120292587     0.04680757772959    -0.33097799865822
   18     0.00000000000000    -0.04321026278445    -0.01162641950796     0.06132757076387    -0.00000000000000
   19     0.00000000000000     0.00000000000000     0.00000000000000    -0.00000000000000     0.00000000000000
   20     0.00000000000000    -0.05299718584272    -0.00890081092779     0.06371059527316     0.00000000000000
   21     0.03559180174935     0.01109667618286     0.00008773070245     0.00212637502719     0.10442580867634
   22     0.02236425822926     0.00536512529017     0.00004241686453     0.00102807978234    -0.00640768988955
   23    -0.06193098316937    -0.02932884112219    -0.00023187482370    -0.00562007166028     0.09195062719959
   24     0.00000000000000    -0.04321026278445    -0.01162641950796     0.06132757076387    -0.00000000000000
   25     0.55037656270326     0.23065465500330     0.00182356361242     0.04419866726052    -0.21584090553979
   26     0.00000000000000     0.00000000000000     0.00000000000000     0.00000000000000    -0.00000000000000
   27    -0.04194887488595    -0.01199156296052    -0.00009480570800    -0.00229785564578    -0.04805465202925
   28    -0.00000000000000    -0.03242144035439    -0.02819253612500     0.02609534679389    -0.00000000000000
   29    -0.00000000000000    -0.00000000000000    -0.00000000000000    -0.00000000000000     0.00000000000000
   30     0.00000000000000     0.00000000000000     0.00000000000000     0.00000000000000    -0.00000000000000
   31     0.00000000000000     0.00000000000000     0.00000000000000    -0.00000000000000     0.00000000000000
   32     0.00000000000000     0.00000000000000     0.00000000000000     0.00000000000000    -0.00000000000000
   33     0.59325447070859     0.24627407324064     0.00194705126865     0.04719170232181    -0.21829575893075
   34     0.00000000000000     0.00000000000000     0.00000000000000     0.00000000000000     0.00000000000000
   35     0.00000000000000     0.00000000000000     0.00000000000000    -0.00000000000000    -0.00000000000000
   36    -0.00797190120807    -0.00285706649203    -0.00002258806567    -0.00054747878910     0.00979324547929
   37     0.09784916320637     0.03270464062576     0.00025856401034     0.00626695146851     0.03195434808997
   38     0.00000000000000    -0.05299718584272    -0.00890081092779     0.06371059527316     0.00000000000000
   39    -0.04194887488595    -0.01199156296052    -0.00009480570800    -0.00229785564578    -0.04805465202925
   40     0.00000000000000     0.00000000000000     0.00000000000000     0.00000000000000     0.00000000000000
   41     0.60106591670571     0.24174382684347     0.00191123498528     0.04632360428531    -0.34084664833769
   42    -0.00000000000000     0.00527986739479    -0.02602819584497    -0.02388768844185    -0.00000000000001
   43     0.00000000000000     0.03180188757663     0.04482100765086    -0.02961989256061     0.00000000000000
   44     0.00000000000000    -0.09941790404121    -0.03649985741311     0.09980804569666    -0.00000000000000
   45     0.03559180174935     0.01109667618286     0.00008773070245     0.00212637502719     0.10442580867634
   46    -0.00000000000000    -0.03242144035439    -0.02819253612500     0.02609534679389    -0.00000000000000
   47     0.00000000000000     0.00000000000000     0.00000000000000    -0.00000000000000    -0.00000000000000
   48    -0.00000000000000     0.00527986739479    -0.02602819584497    -0.02388768844185    -0.00000000000001
   49     0.57203126829275     0.23446240676800     0.00185366782845     0.04492831892636    -0.30359530291167

                46                  47                  48                  49

    1    -0.08647580317568     0.00000000000000    -0.28697974303530     0.88123756819199
    2    -0.00007159750181    -0.00000000000000    -0.00023760441554     0.00966453700317
    3    -0.02775610431417     0.00000000000000    -0.04418592810115    -0.00000000000000
    4    -0.00161667689049     0.00000000000000    -0.00536512529017     0.00430820586532
    5     0.00000000000000     0.00000000000000     0.00000000000000    -0.00000000000000
    6     0.00086092180936    -0.00000000000000     0.00285706649203     0.00576121459683
    7    -0.03751909574281     0.00000000000000    -0.05787182623429    -0.00000000000000
    8    -0.00007159750181    -0.00000000000000    -0.00023760441554     0.00966453700317
    9    -0.07921710459343     0.00000000000000    -0.26289093001011     0.63133656115808
   10     0.18425107987918    -0.00000000000000     0.29978950504635     0.00000000000000
   11     0.00883767984955    -0.00000000000000     0.02932884112219     0.01096743130394
   12    -0.00000000000000    -0.00000000000000    -0.00000000000000     0.00000000000000
   13    -0.00985491183375     0.00000000000000    -0.03270464062576     0.07177361029445
   14     0.06226569600515    -0.00000000000000     0.07451847316495     0.00000000000000
   15    -0.02775610431417     0.00000000000000    -0.04418592810115    -0.00000000000000
   16     0.18425107987918    -0.00000000000000     0.29978950504635     0.00000000000000
   17    -0.07360589179507     0.00000000000000    -0.24426948507574     0.62268846372883
   18     0.02995427366049     0.00000000000000    -0.03896036223608    -0.00000000000000
   19     0.00000000000000     0.04704051036615     0.00000000000000     0.00000000000000
   20    -0.06420923679730     0.00000000000000    -0.07296214942465    -0.00000000000000
   21    -0.00334376905960     0.00000000000000    -0.01109667618286     0.09193278378861
   22    -0.00161667689049     0.00000000000000    -0.00536512529017     0.00430820586532
   23     0.00883767984955    -0.00000000000000     0.02932884112219     0.01096743130394
   24     0.02995427366049     0.00000000000000    -0.03896036223608    -0.00000000000000
   25    -0.06950332569350     0.00000000000000    -0.23065465500331     0.61904530622676
   26    -0.00000000000000    -0.00000000000000    -0.00000000000000     0.00000000000000
   27     0.00361342590726    -0.00000000000000     0.01199156296052    -0.03742160938030
   28     0.14609340508483    -0.00000000000000     0.14567865348113     0.00000000000000
   29     0.00000000000000     0.00000000000000     0.00000000000000    -0.00000000000000
   30    -0.00000000000000    -0.00000000000000    -0.00000000000000     0.00000000000000
   31     0.00000000000000     0.04704051036615     0.00000000000000     0.00000000000000
   32    -0.00000000000000    -0.00000000000000    -0.00000000000000     0.00000000000000
   33    -0.07420993572431     0.00000000000000    -0.24627407324064     0.63104936919282
   34     0.00000000000000    -0.00000000000000    -0.00000000000000     0.00000000000000
   35    -0.00000000000000     0.04788936542929    -0.00000000000000     0.00000000000000
   36     0.00086092180936    -0.00000000000000     0.00285706649203     0.00576121459683
   37    -0.00985491183375     0.00000000000000    -0.03270464062576     0.07177361029445
   38    -0.06420923679730     0.00000000000000    -0.07296214942465    -0.00000000000000
   39     0.00361342590726    -0.00000000000000     0.01199156296052    -0.03742160938030
   40     0.00000000000000    -0.00000000000000    -0.00000000000000     0.00000000000000
   41    -0.07284483346436     0.00000000000000    -0.24174382684348     0.57203126829275
   42     0.11166622705645    -0.00000000000000     0.22614648538282     0.00000000000000
   43    -0.03751909574281     0.00000000000000    -0.05787182623429    -0.00000000000000
   44     0.06226569600515    -0.00000000000000     0.07451847316495     0.00000000000000
   45    -0.00334376905960     0.00000000000000    -0.01109667618286     0.09193278378861
   46     0.14609340508483    -0.00000000000000     0.14567865348113     0.00000000000000
   47    -0.00000000000000     0.04788936542929    -0.00000000000000     0.00000000000000
   48     0.11166622705645    -0.00000000000000     0.22614648538282     0.00000000000000
   49    -0.07065071814936     0.00000000000000    -0.23446240676800     0.62859749405009




*** PSI4 exiting successfully. Buy a developer a beer!
