    -----------------------------------------------------------------------
          PSI4: An Open-Source Ab Initio Electronic Structure Package
                              PSI 4.0 Driver

               Git: Rev {detached?} 

    J. M. Turney, A. C. Simmonett, R. M. Parrish, E. G. Hohenstein,
    F. A. Evangelista, J. T. Fermann, B. J. Mintz, L. A. Burns, J. J. Wilke,
    M. L. Abrams, N. J. Russ, M. L. Leininger, C. L. Janssen, E. T. Seidl,
    W. D. Allen, H. F. Schaefer, R. A. King, E. F. Valeev, C. D. Sherrill,
    and T. D. Crawford, WIREs Comput. Mol. Sci. 2, 556-565 (2012)
    (doi: 10.1002/wcms.93)

                         Additional Contributions by
    A. E. DePrince, M. Saitow, U. Bozkaya, A. Yu. Sokolov
    -----------------------------------------------------------------------

    Process ID:   2293
    PSI4DATADIR: /Users/kevinhannon/Programs/psi4private/lib
    Memory level set to 256.000 MB

  ==> Input File <==

--------------------------------------------------------------------------

# PYTHONPATH must include directory above plugin directory.
#     Define either externally or here, then import plugin.


# Path to plugin_prop.so
objdir = '/Users/kevinhannon/Programs/PsiPlugins_psi4public/plugin_prop'
# Path to data directory
datadir = 'data/'

import sys
sys.path.append(objdir)
import prop

sys.path.insert(0, './..')

import plugin_fragment

#molecule {
##O         -1.485163346097    -0.114724564047     0.000000000000
##H         -1.868415346097     0.762298435953     0.000000000000
#H         -0.533833346097     0.040507435953     0.000000000000
#--
##H        8.200             7.000             7.000
#units angstrom
#symmetry c1
#}

#molecule {
#H        200000000.00               200000000.000             200000000.000
#H        200000001.00               200000000.000             200000000.000
#--
#H        -1003.000             -1003.000             -1003.000
#H        -1002.000             -1003.000             -1003.000
#units angstrom
#symmetry c1
#}
molec--------------------------------------------------------------------------

*** tstart() called on Kevins-MacBook-Pro.local
*** at Sun Dec  7 20:20:51 2014

/Users/kevinhannon/Programs/PsiPlugins_psi4public/plugin_prop/plugin_prop.so loaded.
/Users/kevinhannon/Programs/PsiPlugins_psi4public/plugin_fragment/plugin_fragment.so loaded.

*** tstart() called on Kevins-MacBook-Pro.local
*** at Sun Dec  7 20:20:51 2014

	There are an even number of electrons - assuming singlet.
	Specify the multiplicity with the MULTP option in the
	input if this is incorrect


         ---------------------------------------------------------
                                   SCF
            by Justin Turney, Rob Parrish, and Andy Simmonett
                              RHF Reference
                        1 Threads,    256 MiB Core
         ---------------------------------------------------------

  ==> Geometry <==

    Molecular point group: c1
    Full point group: C1

    Geometry (in Angstrom), charge = 0, multiplicity = 1:

       Center              X                  Y                   Z       
    ------------   -----------------  -----------------  -----------------
           O         -2.407176088730    -1.666479945112    -1.578741396290
           H         -2.790428088730    -0.789456945112    -1.578741396290
           H         -1.455846088730    -1.511247945112    -1.578741396290
           F          2.077987257367     1.448244618935     1.421258603710
           H          3.277987257367     1.448244618935     1.421258603710

  Running in c1 symmetry.


	Rotational constants (cm^-1):
	A =    9.04598    B =    0.04574   C =    0.04557

	Rotational constants (MHz):
	A = 271191.61763    B = 1371.33495   C = 1366.27736
  Nuclear repulsion =   21.639863718922197

  Charge       = 0
  Multiplicity = 1
  Electrons    = 20
  Nalpha       = 10
  Nbeta        = 10

  ==> Algorithm <==

  SCF Algorithm Type is PK.
  DIIS enabled.
  MOM disabled.
  Fractional occupation disabled.
  Guess Type is CORE.
  Energy threshold   = 1.00e-06
  Density threshold  = 1.00e-12
  Integral threshold = 0.00e+00

  ==> Primary Basis <==

  Basis Set: STO-3G
    Number of shells: 9
    Number of basis function: 13
    Number of Cartesian functions: 13
    Spherical Harmonics?: true
    Max angular momentum: 1

  ==> Pre-Iterations <==

   -------------------------------------------------------
    Irrep   Nso     Nmo     Nalpha   Nbeta   Ndocc  Nsocc
   -------------------------------------------------------
     A         13      13       0       0       0       0
   -------------------------------------------------------
    Total      13      13      10      10      10       0
   -------------------------------------------------------

  Starting with a DF guess...

 OEINTS: Wrapper to libmints.
   by Justin Turney

   Calculation information:
      Number of atoms:                   5
      Number of AO shells:               9
      Number of SO shells:               9
      Number of primitives:             27
      Number of atomic orbitals:        13
      Number of basis functions:        13

      Number of irreps:                  1
      Number of functions per irrep: [  13 ]

      Overlap, kinetic, potential, dipole, and quadrupole integrals
        stored in file 35.

  ==> Integral Setup <==

  ==> DFJK: Density-Fitted J/K Matrices <==

    J tasked:                  Yes
    K tasked:                  Yes
    wK tasked:                  No
    OpenMP threads:              1
    Integrals threads:           1
    Memory (MB):               183
    Algorithm:                Core
    Integral Cache:           NONE
    Schwarz Cutoff:          1E-12
    Fitting Condition:       1E-12

   => Auxiliary Basis Set <=

  Basis Set: CC-PVDZ-JKFIT
    Number of shells: 75
    Number of basis function: 209
    Number of Cartesian functions: 237
    Spherical Harmonics?: true
    Max angular momentum: 3

  Minimum eigenvalue in the overlap matrix is 3.4428950414E-01.
  Using Symmetric Orthogonalization.
  SCF Guess: Core (One-Electron) Hamiltonian.

  ==> Iterations <==

                           Total Energy        Delta E     RMS |[F,P]|

   @DF-RHF iter   1:  -171.13009534213452   -1.71130e+02   8.70442e-02 
   @DF-RHF iter   2:  -170.53850342046445    5.91592e-01   6.51180e-02 DIIS
   @DF-RHF iter   3:  -161.56307960340891    8.97542e+00   1.05664e-01 DIIS
   @DF-RHF iter   4:  -173.36331873690500   -1.18002e+01   2.92917e-02 DIIS
   @DF-RHF iter   5:  -173.46282048347126   -9.95017e-02   1.16834e-02 DIIS
   @DF-RHF iter   6:  -173.47487223525619   -1.20518e-02   8.15014e-03 DIIS
   @DF-RHF iter   7:  -173.47486105230610    1.11830e-05   8.58811e-03 DIIS
   @DF-RHF iter   8:  -173.47588493432951   -1.02388e-03   8.19125e-03 DIIS
   @DF-RHF iter   9:  -173.48394305910355   -8.05812e-03   4.06575e-03 DIIS
   @DF-RHF iter  10:  -173.48668585609619   -2.74280e-03   4.45522e-04 DIIS
   @DF-RHF iter  11:  -173.48670858032912   -2.27242e-05   1.53025e-04 DIIS
   @DF-RHF iter  12:  -173.48671211898679   -3.53866e-06   4.01531e-06 DIIS
   @DF-RHF iter  13:  -173.48671212088547   -1.89868e-09   1.35675e-07 DIIS
   @DF-RHF iter  14:  -173.48671212089465   -9.18021e-12   2.36155e-08 DIIS
   @DF-RHF iter  15:  -173.48671212089491   -2.55795e-13   3.04103e-09 DIIS
   @DF-RHF iter  16:  -173.48671212089491    0.00000e+00   6.20012e-10 DIIS
   @DF-RHF iter  17:  -173.48671212089496   -5.68434e-14   1.45478e-10 DIIS
   @DF-RHF iter  18:  -173.48671212089482    1.42109e-13   2.39247e-11 DIIS
   @DF-RHF iter  19:  -173.48671212089485   -2.84217e-14   6.80941e-12 DIIS
   @DF-RHF iter  20:  -173.48671212089491   -5.68434e-14   2.14086e-12 DIIS
   @DF-RHF iter  21:  -173.48671212089485    5.68434e-14   1.07761e-13 DIIS

  DF guess converged.

  ==> Integral Setup <==

 MINTS: Wrapper to libmints.
   by Justin Turney

   Calculation information:
      Number of atoms:                   5
      Number of AO shells:               9
      Number of SO shells:               9
      Number of primitives:             27
      Number of atomic orbitals:        13
      Number of basis functions:        13

      Number of irreps:                  1
      Integral cutoff                 0.00e+00
      Number of functions per irrep: [  13 ]

      Overlap, kinetic, potential, dipole, and quadrupole integrals
        stored in file 35.

      Computing two-electron integrals...done
      Computed 4077 non-zero two-electron integrals.
        Stored in file 33.

	Batch   1 pq = [       0,      91] index = [             0,4186]
  ==> DiskJK: Disk-Based J/K Matrices <==

    J tasked:                  Yes
    K tasked:                  Yes
    wK tasked:                  No
    Memory (MB):               183
    Schwarz Cutoff:          1E-12

   @RHF iter  22:  -173.48663597027783    7.61506e-05   1.82845e-06 DIIS
   @RHF iter  23:  -173.48663597085863   -5.80798e-10   3.30807e-07 DIIS
   @RHF iter  24:  -173.48663597087341   -1.47793e-11   9.29120e-08 DIIS
   @RHF iter  25:  -173.48663597087531   -1.90425e-12   1.83304e-08 DIIS
   @RHF iter  26:  -173.48663597087540   -8.52651e-14   1.51842e-09 DIIS
   @RHF iter  27:  -173.48663597087537    2.84217e-14   9.87041e-11 DIIS
   @RHF iter  28:  -173.48663597087526    1.13687e-13   1.51515e-11 DIIS
   @RHF iter  29:  -173.48663597087534   -8.52651e-14   5.58231e-12 DIIS
   @RHF iter  30:  -173.48663597087545   -1.13687e-13   1.84871e-12 DIIS
   @RHF iter  31:  -173.48663597087540    5.68434e-14   3.95426e-13 DIIS

  ==> Post-Iterations <==

	Orbital Energies (a.u.)
	-----------------------

	Doubly Occupied:                                                      

	   1A    -25.926883     2A    -20.240189     3A     -1.421202  
	   4A     -1.264822     5A     -0.613792     6A     -0.500406  
	   7A     -0.466224     8A     -0.466185     9A     -0.451005  
	  10A     -0.389092  

	Virtual:                                                              

	  11A      0.384634    12A      0.604832    13A      0.740197  

	Final Occupation by Irrep:
	          A 
	DOCC [    10 ]

  Energy converged.

  @RHF Final Energy:  -173.48663597087540

   => Energetics <=

    Nuclear Repulsion Energy =             21.6398637189221965
    One-Electron Energy =                -286.7733971042094367
    Two-Electron Energy =                  91.6468974144118818
    DFT Exchange-Correlation Energy =       0.0000000000000000
    Empirical Dispersion Energy =           0.0000000000000000
    Total Energy =                       -173.4866359708753691



Properties will be evaluated at   0.000000,   0.000000,   0.000000 Bohr
  ==> Properties <==


Properties computed using the SCF density matrix

  Nuclear Dipole Moment: (a.u.)
     X:    -2.8796      Y:    -2.1734      Z:    -2.9760

  Electronic Dipole Moment: (a.u.)
     X:     3.6203      Y:     2.7696      Z:     2.9760

  Dipole Moment: (a.u.)
     X:     0.7407      Y:     0.5962      Z:     0.0000     Total:     0.9508

  Dipole Moment: (Debye)
     X:     1.8826      Y:     1.5154      Z:     0.0000     Total:     2.4168


  Saving occupied orbitals to File 180.

*** tstop() called on Kevins-MacBook-Pro.local at Sun Dec  7 20:20:51 2014
Module time:
	user time   =       0.24 seconds =       0.00 minutes
	system time =       0.02 seconds =       0.00 minutes
	total time  =          0 seconds =       0.00 minutes
Total time:
	user time   =       0.28 seconds =       0.00 minutes
	system time =       0.02 seconds =       0.00 minutes
	total time  =          0 seconds =       0.00 minutes
Reading options from the PLUGIN_FRAGMENT block
Calling plugin plugin_fragment.so.


         ---------------------------------------------------------
                            ORBITAL LOCALIZATION
                        by Francesco A. Evangelista
         ---------------------------------------------------------

  ==> Details <==

    Number of fragments: 2
  Fragment contains 3 atoms
The number of basis functions on A are 7
The number of basis functions on B are 6number of electrons 10
 # lo #
 Irrep: 1
      1:  1.0000000
      2:  1.0000000
      3:  1.0000000
      4:  1.0000000
      5:  1.0000000
      6:  0.0000000
      7:  0.0000000
      8:  0.0000000
      9:  0.0000000
     10: -0.0000000


 # lv #
 Irrep: 1
      1:  1.0000000
      2:  1.0000000
      3:  0.0000000

  ## U (Symmetry 0) ##
  Irrep: 1 Size: 13 x 13

                 1                   2                   3                   4                   5

    1     0.00000000005031     0.00000000001812     0.00000000004560     0.00000000019306    -0.00000000080372
    2    -0.77615835685391    -0.19602781849784    -0.39295297709134     0.45244660549983    -0.00559700165759
    3    -0.00000002255441    -0.00000022821596    -0.00000054352300    -0.00000059477111     0.00000077427745
    4     0.09060495070632    -0.30483817988714    -0.72358368448048    -0.60380159124831     0.10351191694385
    5    -0.44084335508817     0.14585050095232     0.32302723921277    -0.40361462738803     0.71911988076584
    6     0.00000067657122    -0.00000017920993    -0.00000036468998     0.00000076464367     0.00000013333422
    7     0.00001451772287    -0.00000374318125    -0.00000782591301     0.00001670074206     0.00001686599828
    8    -0.00000405942022     0.00000104814867     0.00000219220032    -0.00000466509685    -0.00000466202453
    9    -0.44145010334364     0.11126753283585     0.23096326889493    -0.51699291271584    -0.68710671523383
   10     0.01216101550581    -0.91378003149087     0.40536894359357    -0.02300582613371    -0.00221704401023
   11     0.00000000000000     0.00000000000000     0.00000000000000     0.00000000000000     0.00000000000000
   12     0.00000000000000     0.00000000000000     0.00000000000000     0.00000000000000     0.00000000000000
   13     0.00000000000000     0.00000000000000     0.00000000000000     0.00000000000000     0.00000000000000

                 6                   7                   8                   9                  10

    1    -0.00073789206863    -0.00366602492793     0.00314558459343    -0.00326577162623     0.99998272775572
    2    -0.00000000357145    -0.00000000155275     0.00000000056717     0.00000000062596    -0.00000000003940
    3     0.37671707986507     0.65643605848822    -0.50045463904639     0.42034436202784     0.00563155586202
    4    -0.00000013121699    -0.00000069412653     0.00000049241211    -0.00000035337785    -0.00000000511085
    5     0.00000368802903    -0.00000196650331     0.00000115138350    -0.00000028581058    -0.00000000838250
    6    -0.03592951334592    -0.54726291261490    -0.04348454248427     0.83505735034232     0.00083111368041
    7     0.89076641356089    -0.39491996533887    -0.03418773089656    -0.22226702586097    -0.00140885424688
    8    -0.25165047786103    -0.33707534283373    -0.86398816724605    -0.27672466982582     0.00039261757309
    9     0.00002783022907    -0.00000893597915     0.00000572979927    -0.00000329490947    -0.00000004145129
   10    -0.00000000262572     0.00000000439760    -0.00000000039312    -0.00000000475438     0.00000000000001
   11     0.00000000000000     0.00000000000000     0.00000000000000     0.00000000000000     0.00000000000000
   12     0.00000000000000     0.00000000000000     0.00000000000000     0.00000000000000     0.00000000000000
   13     0.00000000000000     0.00000000000000     0.00000000000000     0.00000000000000     0.00000000000000

                11                  12                  13

    1     0.00000000000000     0.00000000000000     0.00000000000000
    2     0.00000000000000     0.00000000000000     0.00000000000000
    3     0.00000000000000     0.00000000000000     0.00000000000000
    4     0.00000000000000     0.00000000000000     0.00000000000000
    5     0.00000000000000     0.00000000000000     0.00000000000000
    6     0.00000000000000     0.00000000000000     0.00000000000000
    7     0.00000000000000     0.00000000000000     0.00000000000000
    8     0.00000000000000     0.00000000000000     0.00000000000000
    9     0.00000000000000     0.00000000000000     0.00000000000000
   10     0.00000000000000     0.00000000000000     0.00000000000000
   11    -0.00000253022446    -0.00001423740162    -0.99999999989545
   12    -0.64738420916453    -0.76216381806567     0.00001248925974
   13    -0.76216381816380     0.64738420912844    -0.00000728862346



  ## S_ao (Symmetry 0) ##
  Irrep: 1 Size: 13 x 13

                 1                   2                   3                   4                   5

    1     1.00000000000000     0.00000000000000     0.00000000000000    -0.00000000000000     0.00000000000000
    2     0.00000000000000     1.00000000000000    -0.00000000000000     0.00000000000000    -0.00000000000000
    3     0.00000000000000    -0.00000000000000     1.00000000000000     0.00000000000000    -0.00000000000000
    4    -0.00000000000000     0.00000000000000     0.00000000000000     1.00000000000000     0.00000000000000
    5     0.00000000000000    -0.00000000000000    -0.00000000000000    -0.00000000000000     1.00000000000000
    6    -0.00000000000000    -0.00000000000000     0.00000000000000     0.00000000000000     0.00000000000000
    7     0.00000000000000     0.00000000000000    -0.00000000000000    -0.00000000000000     0.00000000000000
    8    -0.00000000000000     0.00000000000000     0.00000000000000    -0.00000000000000    -0.00000000000000
    9    -0.00000000000000    -0.00000000000000     0.00000000000000    -0.00000000000000    -0.00000000000000
   10    -0.00000000000000     0.00000000000000    -0.00000000000000    -0.00000000000000     0.00000000000000
   11    -0.00000000000000    -0.00000000000000    -0.00000000000000    -0.00000000000000    -0.00000000000000
   12    -0.00000000000000     0.00000000000000     0.00000000000000    -0.00000000000000    -0.00000000000000
   13     0.00000000000000    -0.00000000000000     0.00000000000000     0.00000000000000     0.00000000000000

                 6                   7                   8                   9                  10

    1    -0.00000000000000     0.00000000000000    -0.00000000000000    -0.00000000000000    -0.00000000000000
    2    -0.00000000000000     0.00000000000000     0.00000000000000    -0.00000000000000     0.00000000000000
    3     0.00000000000000    -0.00000000000000     0.00000000000000     0.00000000000000    -0.00000000000000
    4     0.00000000000000    -0.00000000000000    -0.00000000000000    -0.00000000000000    -0.00000000000000
    5     0.00000000000000     0.00000000000000    -0.00000000000000    -0.00000000000000     0.00000000000000
    6     1.00000000000000     0.00000000000000    -0.00000000000000     0.00000000000000     0.00000000000000
    7     0.00000000000000     1.00000000000000    -0.00000000000000    -0.00000000000000     0.00000000000000
    8    -0.00000000000000    -0.00000000000000     1.00000000000000     0.00000000000000    -0.00000000000000
    9     0.00000000000000    -0.00000000000000     0.00000000000000     1.00000000000000    -0.00000000000000
   10     0.00000000000000     0.00000000000000    -0.00000000000000    -0.00000000000000     1.00000000000000
   11     0.00000000000000    -0.00000000000000     0.00000000000000    -0.00000000000000    -0.00000000000000
   12     0.00000000000000    -0.00000000000000    -0.00000000000000    -0.00000000000000     0.00000000000000
   13    -0.00000000000000    -0.00000000000000     0.00000000000000    -0.00000000000000    -0.00000000000000

                11                  12                  13

    1    -0.00000000000000    -0.00000000000000     0.00000000000000
    2    -0.00000000000000     0.00000000000000    -0.00000000000000
    3    -0.00000000000000     0.00000000000000     0.00000000000000
    4    -0.00000000000000    -0.00000000000000     0.00000000000000
    5    -0.00000000000000    -0.00000000000000     0.00000000000000
    6     0.00000000000000     0.00000000000000    -0.00000000000000
    7    -0.00000000000000    -0.00000000000000    -0.00000000000000
    8     0.00000000000000    -0.00000000000000     0.00000000000000
    9    -0.00000000000000    -0.00000000000000    -0.00000000000000
   10    -0.00000000000000     0.00000000000000    -0.00000000000000
   11     1.00000000000000    -0.00000000000000    -0.00000000000000
   12    -0.00000000000000     1.00000000000000    -0.00000000000000
   13    -0.00000000000000    -0.00000000000000     1.00000000000000



  ## C (Symmetry 0) ##
  Irrep: 1 Size: 13 x 13

                 1                   2                   3                   4                   5

    1    -0.79649842196202    -0.25419963484022    -0.53503786974805     0.25542418486993    -0.05146070419975
    2     0.14316283393570     0.18852254310611     0.46788814529464     0.79561682473050     0.27737458417270
    3     0.01205459652333    -0.91379232032117     0.40533093117188    -0.02322954041051    -0.00234642523300
    4     0.06263837460409    -0.01810205390924    -0.04306729669059     0.05870488955549    -0.64443123845640
    5    -0.44262508070970     0.15248904804818     0.33244661473426    -0.39939438126518    -0.26842271148481
    6    -0.32846529205341     0.14568715451235     0.32579276664422    -0.22921190479013     0.11340721054462
    7     0.06228286724408     0.01544741407015     0.03720613160484     0.12628446516486    -0.52973841421256
    8    -0.00000000002650     0.00000000002617     0.00000000002017    -0.00000000001735    -0.00000006722277
    9     0.00000000014846    -0.00000000014662    -0.00000000011303     0.00000000009721     0.00000037665824
   10    -0.00000000000000     0.00000000000000     0.00000000000000    -0.00000000000000    -0.00000000000290
   11     0.00000000036394    -0.00000000035944    -0.00000000027709     0.00000000023830     0.00000092337759
   12    -0.00000000000000     0.00000000000000     0.00000000000000    -0.00000000000000    -0.00000000000555
   13    -0.00000000042241     0.00000000041719     0.00000000032161    -0.00000000027658    -0.00000107172704

                 6                   7                   8                   9                  10

    1    -0.00000018144833     0.00000002671869    -0.00000000931961    -0.00000000881225    -0.00000000018266
    2     0.00000112873222    -0.00000020657948     0.00000007314258     0.00000006872333     0.00000000143488
    3     0.00000000007118     0.00000000007169    -0.00000000000489    -0.00000000008305     0.00000000000063
    4     0.00000167058236    -0.00000014983012     0.00000006027461     0.00000005502809     0.00000000130095
    5     0.00000038300973    -0.00000004251122     0.00000000865963     0.00000000997610     0.00000000010123
    6    -0.00000015934571     0.00000001132158     0.00000000431219     0.00000000339097     0.00000000028963
    7    -0.00000176559333     0.00000040981064    -0.00000015499033    -0.00000014443391    -0.00000000324949
    8     0.09425063512740     0.13613687511836    -0.12810694436925     0.14998419704407     0.99643514978131
    9    -0.36334090406649    -0.50116034926312     0.50853966528685    -0.64745434065247     0.01492503881083
   10     0.65924468709056    -0.50915348415411    -0.44660289195212    -0.32665569122844    -0.00104326234086
   11    -0.03661152481221    -0.39415489978357    -0.01497615884315     0.56093928945103     0.00181401678346
   12     0.64983217203951     0.10476347351186     0.74047166306972     0.13580660348586    -0.00102245610884
   13    -0.06123858812474    -0.39103904147827     0.02660542203298     0.44955998572059    -0.00338218647637

                11                  12                  13

    1    -0.08838351875645    -0.09784989512187     0.00000017675505
    2     0.59114754061832     0.65010379464370    -0.00000123801587
    3     0.00002087657452     0.00002377320374     0.00000000268837
    4    -0.40927702252643     0.84260756240694    -0.00000001512556
    5     0.78866136527309     0.17017449593935     0.00000023678516
    6    -1.15657727657031    -0.03391361502670    -0.00000024835683
    7     0.09177221739923    -1.14582126078968     0.00000261693283
    8     0.00000000388571    -0.00000023561233    -0.05635205194225
    9    -0.00000001380435     0.00000090829900     0.31574813993484
   10    -0.00000001452784    -0.00000164801222    -0.00000242788911
   11    -0.00000001649295     0.00000009150537     0.77405649174848
   12     0.00000000200159    -0.00000162450995    -0.00000465156040
   13    -0.00000001579933     0.00000015307136    -0.89841608300669



  ## DF (Symmetry 0) ##
  Irrep: 1 Size: 13 x 13

                 1                   2                   3                   4                   5

    1     1.05318243089866    -0.22334332197219     0.00000417135061     0.02591033754587     0.04771422690259
    2    -0.22334332197219     0.98489845452749    -0.00002779618564    -0.14663808455690    -0.27129053523162
    3     0.00000417135061    -0.00002779618564     0.99999999899900    -0.00001148717899    -0.00002051014073
    4     0.02591033754587    -0.14663808455690    -0.00001148717899     0.42484392753200     0.10473031977783
    5     0.04771422690259    -0.27129053523162    -0.00002051014073     0.10473031977783     0.56125724732338
    6    -0.01410528139219    -0.01803270587049     0.00002495160699    -0.12378179117059     0.33701625022158
    7    -0.01392480347261    -0.01722484170196     0.00002532395274     0.35081279804504     0.07891317051699
    8    -0.00000001031546     0.00000006197863     0.00000000014735     0.00000018220054     0.00000004887281
    9     0.00000003412190    -0.00000020936956    -0.00000000080660    -0.00000077956653    -0.00000022118005
   10    -0.00000012618168     0.00000079417453     0.00000000003974     0.00000113271552     0.00000026701638
   11    -0.00000005619915     0.00000033372229    -0.00000000202902    -0.00000056713733    -0.00000024005879
   12    -0.00000012320902     0.00000077533461     0.00000000003888     0.00000112200851     0.00000025220684
   13     0.00000005159412    -0.00000025282617     0.00000000219533     0.00000067321327     0.00000028602732

                 6                   7                   8                   9                  10

    1    -0.01410528139219    -0.01392480347261    -0.00000001031546     0.00000003412190    -0.00000012618168
    2    -0.01803270587049    -0.01722484170196     0.00000006197863    -0.00000020936956     0.00000079417453
    3     0.00002495160699     0.00002532395274     0.00000000014735    -0.00000000080660     0.00000000003974
    4    -0.12378179117059     0.35081279804504     0.00000018220054    -0.00000077956653     0.00000113271552
    5     0.33701625022158     0.07891317051699     0.00000004887281    -0.00000022118005     0.00000026701638
    6     0.30065441457239    -0.09510784050686    -0.00000002083286     0.00000009481117    -0.00000011384638
    7    -0.09510784050686     0.30207262802034    -0.00000008005553     0.00000025126327    -0.00000125621032
    8    -0.00000002083286    -0.00000008005553     1.05920608726720    -0.24985506359091    -0.00000013681690
    9     0.00000009481117     0.00000025126327    -0.24985506359091     1.06121077942482     0.00000076660298
   10    -0.00000011384638    -0.00000125621032    -0.00000013681690     0.00000076660298     0.99999999999164
   11     0.00000010761038    -0.00000066470287     0.03074845311618    -0.15993420256789     0.00000187932396
   12    -0.00000009870923    -0.00000123878093    -0.00000026212534     0.00000146872303    -0.00000000001373
   13    -0.00000011420475     0.00000044651834     0.00164181569185    -0.05936638441206    -0.00000218125518

                11                  12                  13

    1    -0.00000005619915    -0.00000012320902     0.00000005159412
    2     0.00000033372229     0.00000077533461    -0.00000025282617
    3    -0.00000000202902     0.00000000003888     0.00000000219533
    4    -0.00000056713733     0.00000112200851     0.00000067321327
    5    -0.00000024005879     0.00000025220684     0.00000028602732
    6     0.00000010761038    -0.00000009870923    -0.00000011420475
    7    -0.00000066470287    -0.00000123878093     0.00000044651834
    8     0.03074845311618    -0.00000026212534     0.00164181569185
    9    -0.15993420256789     0.00000146872303    -0.05936638441206
   10     0.00000187932396    -0.00000000001373    -0.00000218125518
   11     0.47157895121374     0.00000360057115     0.40814326887917
   12     0.00000360057115     0.99999999997596    -0.00000417903722
   13     0.40814326887917    -0.00000417903722     0.35948516506492



 MINTS: Wrapper to libmints.
   by Justin Turney

   Calculation information:
      Number of atoms:                   5
      Number of AO shells:               9
      Number of SO shells:               9
      Number of primitives:             27
      Number of atomic orbitals:        13
      Number of basis functions:        13

      Number of irreps:                  1
      Integral cutoff                 1.00e-12
      Number of functions per irrep: [  13 ]

      Overlap, kinetic, potential, dipole, and quadrupole integrals
        stored in file 35.

      Computing two-electron integrals...done
      Computed 1577 non-zero two-electron integrals.
        Stored in file 33.

	Batch   1 pq = [       0,      91] index = [             0,4186]
 MINTS: Wrapper to libmints.
   by Justin Turney

   Calculation information:
      Number of atoms:                   5
      Number of AO shells:               9
      Number of SO shells:               9
      Number of primitives:             27
      Number of atomic orbitals:        13
      Number of basis functions:        13

      Number of irreps:                  1
      Integral cutoff                 1.00e-12
      Number of functions per irrep: [  13 ]

      Overlap, kinetic, potential, dipole, and quadrupole integrals
        stored in file 35.

      Computing two-electron integrals...done
      Computed 1577 non-zero two-electron integrals.
        Stored in file 33.

	Batch   1 pq = [       0,      91] index = [             0,4186]
 MINTS: Wrapper to libmints.
   by Justin Turney

   Calculation information:
      Number of atoms:                   5
      Number of AO shells:               9
      Number of SO shells:               9
      Number of primitives:             27
      Number of atomic orbitals:        13
      Number of basis functions:        13

      Number of irreps:                  1
      Integral cutoff                 1.00e-12
      Number of functions per irrep: [  13 ]

      Overlap, kinetic, potential, dipole, and quadrupole integrals
        stored in file 35.

      Computing two-electron integrals...done
      Computed 1577 non-zero two-electron integrals.
        Stored in file 33.

	Batch   1 pq = [       0,      91] index = [             0,4186]
  ==> DiskJK: Disk-Based J/K Matrices <==

    J tasked:                  Yes
    K tasked:                  Yes
    wK tasked:                  No
    Memory (MB):              7629
    Schwarz Cutoff:          1E-12

  ==> DiskJK: Disk-Based J/K Matrices <==

    J tasked:                  Yes
    K tasked:                  Yes
    wK tasked:                  No
    Memory (MB):              7629
    Schwarz Cutoff:          1E-12

  ==> DiskJK: Disk-Based J/K Matrices <==

    J tasked:                  Yes
    K tasked:                  Yes
    wK tasked:                  No
    Memory (MB):              7629
    Schwarz Cutoff:          1E-12

  ## C (Symmetry 0) ##
  Irrep: 1 Size: 13 x 13

                 1                   2                   3                   4                   5

    1    -0.79649842196202    -0.25419963484022    -0.53503786974805     0.25542418486993    -0.05146070419975
    2     0.14316283393570     0.18852254310611     0.46788814529464     0.79561682473050     0.27737458417270
    3     0.01205459652333    -0.91379232032117     0.40533093117188    -0.02322954041051    -0.00234642523300
    4     0.06263837460409    -0.01810205390924    -0.04306729669059     0.05870488955549    -0.64443123845640
    5    -0.44262508070970     0.15248904804818     0.33244661473426    -0.39939438126518    -0.26842271148481
    6    -0.32846529205341     0.14568715451235     0.32579276664422    -0.22921190479013     0.11340721054462
    7     0.06228286724408     0.01544741407015     0.03720613160484     0.12628446516486    -0.52973841421256
    8    -0.00000000002650     0.00000000002617     0.00000000002017    -0.00000000001735    -0.00000006722277
    9     0.00000000014846    -0.00000000014662    -0.00000000011303     0.00000000009721     0.00000037665824
   10    -0.00000000000000     0.00000000000000     0.00000000000000    -0.00000000000000    -0.00000000000290
   11     0.00000000036394    -0.00000000035944    -0.00000000027709     0.00000000023830     0.00000092337759
   12    -0.00000000000000     0.00000000000000     0.00000000000000    -0.00000000000000    -0.00000000000555
   13    -0.00000000042241     0.00000000041719     0.00000000032161    -0.00000000027658    -0.00000107172704

                 6                   7                   8                   9                  10

    1    -0.00000018144833     0.00000002671869    -0.00000000931961    -0.00000000881225    -0.00000000018266
    2     0.00000112873222    -0.00000020657948     0.00000007314258     0.00000006872333     0.00000000143488
    3     0.00000000007118     0.00000000007169    -0.00000000000489    -0.00000000008305     0.00000000000063
    4     0.00000167058236    -0.00000014983012     0.00000006027461     0.00000005502809     0.00000000130095
    5     0.00000038300973    -0.00000004251122     0.00000000865963     0.00000000997610     0.00000000010123
    6    -0.00000015934571     0.00000001132158     0.00000000431219     0.00000000339097     0.00000000028963
    7    -0.00000176559333     0.00000040981064    -0.00000015499033    -0.00000014443391    -0.00000000324949
    8     0.09425063512740     0.13613687511836    -0.12810694436925     0.14998419704407     0.99643514978131
    9    -0.36334090406649    -0.50116034926312     0.50853966528685    -0.64745434065247     0.01492503881083
   10     0.65924468709056    -0.50915348415411    -0.44660289195212    -0.32665569122844    -0.00104326234086
   11    -0.03661152481221    -0.39415489978357    -0.01497615884315     0.56093928945103     0.00181401678346
   12     0.64983217203951     0.10476347351186     0.74047166306972     0.13580660348586    -0.00102245610884
   13    -0.06123858812474    -0.39103904147827     0.02660542203298     0.44955998572059    -0.00338218647637

                11                  12                  13

    1    -0.08838351875645    -0.09784989512187     0.00000017675505
    2     0.59114754061832     0.65010379464370    -0.00000123801587
    3     0.00002087657452     0.00002377320374     0.00000000268837
    4    -0.40927702252643     0.84260756240694    -0.00000001512556
    5     0.78866136527309     0.17017449593935     0.00000023678516
    6    -1.15657727657031    -0.03391361502670    -0.00000024835683
    7     0.09177221739923    -1.14582126078968     0.00000261693283
    8     0.00000000388571    -0.00000023561233    -0.05635205194225
    9    -0.00000001380435     0.00000090829900     0.31574813993484
   10    -0.00000001452784    -0.00000164801222    -0.00000242788911
   11    -0.00000001649295     0.00000009150537     0.77405649174848
   12     0.00000000200159    -0.00000162450995    -0.00000465156040
   13    -0.00000001579933     0.00000015307136    -0.89841608300669




nAocc = 5	
 nBocc = 5 
  ## CAocc (Symmetry 0) ##
  Irrep: 1 Size: 13 x 5

                 1                   2                   3                   4                   5

    1    -0.79649842196202    -0.25419963484022    -0.53503786974805     0.25542418486993    -0.05146070419975
    2     0.14316283393570     0.18852254310611     0.46788814529464     0.79561682473050     0.27737458417270
    3     0.01205459652333    -0.91379232032117     0.40533093117188    -0.02322954041051    -0.00234642523300
    4     0.06263837460409    -0.01810205390924    -0.04306729669059     0.05870488955549    -0.64443123845640
    5    -0.44262508070970     0.15248904804818     0.33244661473426    -0.39939438126518    -0.26842271148481
    6    -0.32846529205341     0.14568715451235     0.32579276664422    -0.22921190479013     0.11340721054462
    7     0.06228286724408     0.01544741407015     0.03720613160484     0.12628446516486    -0.52973841421256
    8    -0.00000000002650     0.00000000002617     0.00000000002017    -0.00000000001735    -0.00000006722277
    9     0.00000000014846    -0.00000000014662    -0.00000000011303     0.00000000009721     0.00000037665824
   10    -0.00000000000000     0.00000000000000     0.00000000000000    -0.00000000000000    -0.00000000000290
   11     0.00000000036394    -0.00000000035944    -0.00000000027709     0.00000000023830     0.00000092337759
   12    -0.00000000000000     0.00000000000000     0.00000000000000    -0.00000000000000    -0.00000000000555
   13    -0.00000000042241     0.00000000041719     0.00000000032161    -0.00000000027658    -0.00000107172704



  ## CBocc (Symmetry 0) ##
  Irrep: 1 Size: 13 x 5

                 1                   2                   3                   4                   5

    1    -0.00000018144833     0.00000002671869    -0.00000000931961    -0.00000000881225    -0.00000000018266
    2     0.00000112873222    -0.00000020657948     0.00000007314258     0.00000006872333     0.00000000143488
    3     0.00000000007118     0.00000000007169    -0.00000000000489    -0.00000000008305     0.00000000000063
    4     0.00000167058236    -0.00000014983012     0.00000006027461     0.00000005502809     0.00000000130095
    5     0.00000038300973    -0.00000004251122     0.00000000865963     0.00000000997610     0.00000000010123
    6    -0.00000015934571     0.00000001132158     0.00000000431219     0.00000000339097     0.00000000028963
    7    -0.00000176559333     0.00000040981064    -0.00000015499033    -0.00000014443391    -0.00000000324949
    8     0.09425063512740     0.13613687511836    -0.12810694436925     0.14998419704407     0.99643514978131
    9    -0.36334090406649    -0.50116034926312     0.50853966528685    -0.64745434065247     0.01492503881083
   10     0.65924468709056    -0.50915348415411    -0.44660289195212    -0.32665569122844    -0.00104326234086
   11    -0.03661152481221    -0.39415489978357    -0.01497615884315     0.56093928945103     0.00181401678346
   12     0.64983217203951     0.10476347351186     0.74047166306972     0.13580660348586    -0.00102245610884
   13    -0.06123858812474    -0.39103904147827     0.02660542203298     0.44955998572059    -0.00338218647637



  ## CBocc (Symmetry 0) ##
  Irrep: 1 Size: 13 x 10

                 1                   2                   3                   4                   5

    1    -0.79649842196202    -0.25419963484022    -0.53503786974805     0.25542418486993    -0.05146070419975
    2     0.14316283393570     0.18852254310611     0.46788814529464     0.79561682473050     0.27737458417270
    3     0.01205459652333    -0.91379232032117     0.40533093117188    -0.02322954041051    -0.00234642523300
    4     0.06263837460409    -0.01810205390924    -0.04306729669059     0.05870488955549    -0.64443123845640
    5    -0.44262508070970     0.15248904804818     0.33244661473426    -0.39939438126518    -0.26842271148481
    6    -0.32846529205341     0.14568715451235     0.32579276664422    -0.22921190479013     0.11340721054462
    7     0.06228286724408     0.01544741407015     0.03720613160484     0.12628446516486    -0.52973841421256
    8    -0.00000000002650     0.00000000002617     0.00000000002017    -0.00000000001735    -0.00000006722277
    9     0.00000000014846    -0.00000000014662    -0.00000000011303     0.00000000009721     0.00000037665824
   10    -0.00000000000000     0.00000000000000     0.00000000000000    -0.00000000000000    -0.00000000000290
   11     0.00000000036394    -0.00000000035944    -0.00000000027709     0.00000000023830     0.00000092337759
   12    -0.00000000000000     0.00000000000000     0.00000000000000    -0.00000000000000    -0.00000000000555
   13    -0.00000000042241     0.00000000041719     0.00000000032161    -0.00000000027658    -0.00000107172704

                 6                   7                   8                   9                  10

    1    -0.00000018144833     0.00000002671869    -0.00000000931961    -0.00000000881225    -0.00000000018266
    2     0.00000112873222    -0.00000020657948     0.00000007314258     0.00000006872333     0.00000000143488
    3     0.00000000007118     0.00000000007169    -0.00000000000489    -0.00000000008305     0.00000000000063
    4     0.00000167058236    -0.00000014983012     0.00000006027461     0.00000005502809     0.00000000130095
    5     0.00000038300973    -0.00000004251122     0.00000000865963     0.00000000997610     0.00000000010123
    6    -0.00000015934571     0.00000001132158     0.00000000431219     0.00000000339097     0.00000000028963
    7    -0.00000176559333     0.00000040981064    -0.00000015499033    -0.00000014443391    -0.00000000324949
    8     0.09425063512740     0.13613687511836    -0.12810694436925     0.14998419704407     0.99643514978131
    9    -0.36334090406649    -0.50116034926312     0.50853966528685    -0.64745434065247     0.01492503881083
   10     0.65924468709056    -0.50915348415411    -0.44660289195212    -0.32665569122844    -0.00104326234086
   11    -0.03661152481221    -0.39415489978357    -0.01497615884315     0.56093928945103     0.00181401678346
   12     0.64983217203951     0.10476347351186     0.74047166306972     0.13580660348586    -0.00102245610884
   13    -0.06123858812474    -0.39103904147827     0.02660542203298     0.44955998572059    -0.00338218647637



  ## GA (Symmetry 0) ##
  Irrep: 1 Size: 13 x 13

                 1                   2                   3                   4                   5

    1    12.48381585437479     2.44887249013409    -0.00000178513880    -0.00499461480755    -0.00914944975005
    2     2.44887249013409     6.88640477111256    -0.00000048983213     0.04654281745070     0.08505466224511
    3    -0.00000178513880    -0.00000048983213     7.06380811386301     0.00000433391176     0.00000764173852
    4    -0.00499461480755     0.04654281745070     0.00000433391176     7.27219611964734    -0.03930072166165
    5    -0.00914944975005     0.08505466224511     0.00000764173852    -0.03930072166165     7.21928133312411
    6     0.55413323531111     2.71663024542943    -0.00000540296286    -0.82183486056693     1.90357465088151
    7     0.54511408938646     2.68651512323270    -0.00000547453916     2.02717006879676     0.33997392410639
    8    -0.00000000000613     0.00000000000489    -0.00000000000209    -0.00000000055294    -0.00000000016082
    9     0.00000000023830    -0.00000000415634    -0.00000000017645    -0.00000001505728    -0.00000000226644
   10    -0.00000000023945     0.00000000488084     0.00000000020663     0.00000002138363     0.00000000374736
   11     0.00000000031015     0.00000000443464     0.00000000043760     0.00000007528842     0.00000001975955
   12    -0.00000000023514     0.00000000478508     0.00000000022866     0.00000002120067     0.00000000352190
   13     0.00000000018098    -0.00000001581378    -0.00000000057307    -0.00000011747408    -0.00000002674610

                 6                   7                   8                   9                  10

    1     0.55413323531111     0.54511408938646    -0.00000000000613     0.00000000023830    -0.00000000023945
    2     2.71663024542943     2.68651512323270     0.00000000000489    -0.00000000415634     0.00000000488084
    3    -0.00000540296286    -0.00000547453916    -0.00000000000209    -0.00000000017645     0.00000000020663
    4    -0.82183486056693     2.02717006879676    -0.00000000055294    -0.00000001505728     0.00000002138363
    5     1.90357465088151     0.33997392410639    -0.00000000016082    -0.00000000226644     0.00000000374736
    6     4.49731824803670     1.20645303777354     0.00000000005644     0.00000001402797    -0.00000001689166
    7     1.20645303777354     4.48060710397035     0.00000000014543     0.00000035728077    -0.00000042129053
    8     0.00000000005644     0.00000000014543     0.85805070035499     0.20420738506771    -0.00162484905813
    9     0.00000001402797     0.00000035728077     0.20420738506771     0.85805070035431    -0.02033081694613
   10    -0.00000001689166    -0.00000042129053    -0.00162484905813    -0.02033081694613     0.85763459861670
   11    -0.00000003182631    -0.00000045908514    -0.00239331934902    -0.02994625090595     0.00153853805576
   12    -0.00000001314153    -0.00000041598970    -0.00164588380052    -0.02059401277642     0.00106254435953
   13     0.00000007133668     0.00000135668529     0.02152578205055     0.23154149682259    -0.00558179711593

                11                  12                  13

    1     0.00000000031015    -0.00000000023514     0.00000000018098
    2     0.00000000443464     0.00000000478508    -0.00000001581378
    3     0.00000000043760     0.00000000022866    -0.00000000057307
    4     0.00000007528842     0.00000002120067    -0.00000011747408
    5     0.00000001975955     0.00000000352190    -0.00000002674610
    6    -0.00000003182631    -0.00000001314153     0.00000007133668
    7    -0.00000045908514    -0.00000041598970     0.00000135668529
    8    -0.00239331934902    -0.00164588380052     0.02152578205055
    9    -0.02994625090595    -0.02059401277642     0.23154149682259
   10     0.00153853805576     0.00106254435953    -0.00558179711593
   11     0.85885213876892     0.00155526249967     0.19167393062955
   12     0.00155526249967     0.85766536367698    -0.00565524924781
   13     0.19167393062955    -0.00565524924781     0.74747948875788



  ## H (Symmetry 0) ##
  Irrep: 1 Size: 13 x 13

                 1                   2                   3                   4                   5

    1   -32.71519250395254    -7.61144993060570     0.00001003450293    -0.00888301579238    -0.01668234905827
    2    -7.61144993060570    -9.32943415870316     0.00012667072962    -0.10491834921542    -0.19628160164566
    3     0.00001003450293     0.00012667072962    -7.45290007499630     0.00001189278569     0.00001019568992
    4    -0.00888301579238    -0.10491834921542     0.00001189278569    -7.59280752174177     0.02632654303671
    5    -0.01668234905827    -0.19628160164566     0.00001019568992     0.02632654303671    -7.56106421246118
    6    -1.74966020574359    -3.74006475838194     0.00006271391419     0.99305989962925    -2.41559856203915
    7    -1.72165683816135    -3.69863259835235     0.00006866499450    -2.54725587750367    -0.47354598659122
    8     0.00000000000566    -0.00000000005892    -0.00000000000203    -0.00000000034272    -0.00000000006410
    9    -0.00000000035292     0.00000000707618     0.00000000022782     0.00000003290355     0.00000000657572
   10     0.00000000062191    -0.00000001196318    -0.00000000037169    -0.00000005549865    -0.00000001260192
   11    -0.00000000005413     0.00000000071112     0.00000000001013     0.00000000384173     0.00000000010360
   12     0.00000000060757    -0.00000001170185    -0.00000000038934    -0.00000005501654    -0.00000001189154
   13    -0.00000000016829     0.00000000196343    -0.00000000117198     0.00000001231977     0.00000000111239

                 6                   7                   8                   9                  10

    1    -1.74966020574359    -1.72165683816135     0.00000000000566    -0.00000000035292     0.00000000062191
    2    -3.74006475838194    -3.69863259835235    -0.00000000005892     0.00000000707618    -0.00000001196318
    3     0.00006271391419     0.00006866499450    -0.00000000000203     0.00000000022782    -0.00000000037169
    4     0.99305989962925    -2.54725587750367    -0.00000000034272     0.00000003290355    -0.00000005549865
    5    -2.41559856203915    -0.47354598659122    -0.00000000006410     0.00000000657572    -0.00000001260192
    6    -5.07420068430356    -1.59639862763039    -0.00000000025446    -0.00000006985108     0.00000008178516
    7    -1.59639862763039    -5.04812571351691    -0.00000002384168    -0.00000160595470     0.00000175100189
    8    -0.00000000025446    -0.00000002384168   -26.77562057124648    -6.83005751637781     0.00164886556340
    9    -0.00000006985108    -0.00000160595470    -6.83005751637781    -3.88033670708832     0.02063049402047
   10     0.00000008178516     0.00000175100189     0.00164886556340     0.02063049402047    -1.32384974695077
   11     0.00000010779274     0.00000186266867    -0.01371230638126     0.00086798874524    -0.00156868628411
   12     0.00000006353672     0.00000172747882     0.00165220911363     0.02067157174205    -0.00107922820424
   13    -0.00000016959751    -0.00000348733734    -0.73677008058223    -0.92361892003130     0.00566193650190

                11                  12                  13

    1    -0.00000000005413     0.00000000060757    -0.00000000016829
    2     0.00000000071112    -0.00000001170185     0.00000000196343
    3     0.00000000001013    -0.00000000038934    -0.00000000117198
    4     0.00000000384173    -0.00000005501654     0.00000001231977
    5     0.00000000010360    -0.00000001189154     0.00000000111239
    6     0.00000010779274     0.00000006353672    -0.00000016959751
    7     0.00000186266867     0.00000172747882    -0.00000348733734
    8    -0.01371230638126     0.00165220911363    -0.73677008058223
    9     0.00086798874524     0.02067157174205    -0.92361892003130
   10    -0.00156868628411    -0.00107922820424     0.00566193650190
   11    -1.09155980077857    -0.00156813108981    -0.63805692704766
   12    -0.00156813108981    -1.32385926188897     0.00567542849173
   13    -0.63805692704766     0.00567542849173    -1.06511140805507





	Energy of system A =     -84.107414672054 

	

	Energy of system B =    -111.019085017743 

	

	 Embedded energy =    -173.486635970875 
 
	

	Energy of system  =    -173.486635970875 

	

	Error  =       0.000000000000 

	
*** tstart() called on Kevins-MacBook-Pro.local
*** at Sun Dec  7 20:20:51 2014

	There are an even number of electrons - assuming singlet.
	Specify the multiplicity with the MULTP option in the
	input if this is incorrect


         ---------------------------------------------------------
                                   SCF
            by Justin Turney, Rob Parrish, and Andy Simmonett
                              RHF Reference
                        1 Threads,    256 MiB Core
         ---------------------------------------------------------

  ==> Geometry <==

    Molecular point group: c1
    Full point group: C1

    Geometry (in Angstrom), charge = 0, multiplicity = 1:

       Center              X                  Y                   Z       
    ------------   -----------------  -----------------  -----------------
           O         -2.407176088730    -1.666479945112    -1.578741396290
           H         -2.790428088730    -0.789456945112    -1.578741396290
           H         -1.455846088730    -1.511247945112    -1.578741396290
           F          2.077987257367     1.448244618935     1.421258603710
           H          3.277987257367     1.448244618935     1.421258603710

  Running in c1 symmetry.


	Rotational constants (cm^-1):
	A =    9.04598    B =    0.04574   C =    0.04557

	Rotational constants (MHz):
	A = 271191.61763    B = 1371.33495   C = 1366.27736
  Nuclear repulsion =   21.639863718922197

  Charge       = 0
  Multiplicity = 1
  Electrons    = 20
  Nalpha       = 10
  Nbeta        = 10

  ==> Algorithm <==

  SCF Algorithm Type is PK.
  DIIS enabled.
  MOM disabled.
  Fractional occupation disabled.
  Guess Type is CORE.
  Energy threshold   = 1.00e-08
  Density threshold  = 1.00e-12
  Integral threshold = 0.00e+00

  ==> Primary Basis <==

  Basis Set: STO-3G
    Number of shells: 9
    Number of basis function: 13
    Number of Cartesian functions: 13
    Spherical Harmonics?: true
    Max angular momentum: 1

  ==> Pre-Iterations <==

   -------------------------------------------------------
    Irrep   Nso     Nmo     Nalpha   Nbeta   Ndocc  Nsocc
   -------------------------------------------------------
     A         13      13       0       0       0       0
   -------------------------------------------------------
    Total      13      13      10      10      10       0
   -------------------------------------------------------

  Starting with a DF guess...

 OEINTS: Wrapper to libmints.
   by Justin Turney

   Calculation information:
      Number of atoms:                   5
      Number of AO shells:               9
      Number of SO shells:               9
      Number of primitives:             27
      Number of atomic orbitals:        13
      Number of basis functions:        13

      Number of irreps:                  1
      Number of functions per irrep: [  13 ]

      Overlap, kinetic, potential, dipole, and quadrupole integrals
        stored in file 35.

  ==> Integral Setup <==

  ==> DFJK: Density-Fitted J/K Matrices <==

    J tasked:                  Yes
    K tasked:                  Yes
    wK tasked:                  No
    OpenMP threads:              1
    Integrals threads:           1
    Memory (MB):               183
    Algorithm:                Core
    Integral Cache:           NONE
    Schwarz Cutoff:          1E-12
    Fitting Condition:       1E-12

   => Auxiliary Basis Set <=

  Basis Set: CC-PVDZ-JKFIT
    Number of shells: 75
    Number of basis function: 209
    Number of Cartesian functions: 237
    Spherical Harmonics?: true
    Max angular momentum: 3

  Minimum eigenvalue in the overlap matrix is 3.4428950414E-01.
  Using Symmetric Orthogonalization.
  SCF Guess: Core (One-Electron) Hamiltonian.

  ==> Iterations <==

                           Total Energy        Delta E     RMS |[F,P]|

   @DF-RHF iter   1:  -171.13009534213452   -1.71130e+02   8.70442e-02 
   @DF-RHF iter   2:  -170.53850342046445    5.91592e-01   6.51180e-02 DIIS
   @DF-RHF iter   3:  -161.56307960340891    8.97542e+00   1.05664e-01 DIIS
   @DF-RHF iter   4:  -173.36331873690500   -1.18002e+01   2.92917e-02 DIIS
   @DF-RHF iter   5:  -173.46282048347126   -9.95017e-02   1.16834e-02 DIIS
   @DF-RHF iter   6:  -173.47487223525619   -1.20518e-02   8.15014e-03 DIIS
   @DF-RHF iter   7:  -173.47486105230610    1.11830e-05   8.58811e-03 DIIS
   @DF-RHF iter   8:  -173.47588493432951   -1.02388e-03   8.19125e-03 DIIS
   @DF-RHF iter   9:  -173.48394305910355   -8.05812e-03   4.06575e-03 DIIS
   @DF-RHF iter  10:  -173.48668585609619   -2.74280e-03   4.45522e-04 DIIS
   @DF-RHF iter  11:  -173.48670858032912   -2.27242e-05   1.53025e-04 DIIS
   @DF-RHF iter  12:  -173.48671211898676   -3.53866e-06   4.01531e-06 DIIS
   @DF-RHF iter  13:  -173.48671212088561   -1.89885e-09   1.35675e-07 DIIS
   @DF-RHF iter  14:  -173.48671212089462   -9.00968e-12   2.36155e-08 DIIS
   @DF-RHF iter  15:  -173.48671212089502   -3.97904e-13   3.04103e-09 DIIS
   @DF-RHF iter  16:  -173.48671212089491    1.13687e-13   6.20012e-10 DIIS
   @DF-RHF iter  17:  -173.48671212089494   -2.84217e-14   1.45478e-10 DIIS
   @DF-RHF iter  18:  -173.48671212089491    2.84217e-14   2.39247e-11 DIIS
   @DF-RHF iter  19:  -173.48671212089488    2.84217e-14   6.80954e-12 DIIS
   @DF-RHF iter  20:  -173.48671212089491   -2.84217e-14   2.14050e-12 DIIS
   @DF-RHF iter  21:  -173.48671212089491    0.00000e+00   1.07927e-13 DIIS

  DF guess converged.

  ==> Integral Setup <==

 MINTS: Wrapper to libmints.
   by Justin Turney

   Calculation information:
      Number of atoms:                   5
      Number of AO shells:               9
      Number of SO shells:               9
      Number of primitives:             27
      Number of atomic orbitals:        13
      Number of basis functions:        13

      Number of irreps:                  1
      Integral cutoff                 0.00e+00
      Number of functions per irrep: [  13 ]

      Overlap, kinetic, potential, dipole, and quadrupole integrals
        stored in file 35.

      Computing two-electron integrals...done
      Computed 4077 non-zero two-electron integrals.
        Stored in file 33.

	Batch   1 pq = [       0,      91] index = [             0,4186]
  ==> DiskJK: Disk-Based J/K Matrices <==

    J tasked:                  Yes
    K tasked:                  Yes
    wK tasked:                  No
    Memory (MB):               183
    Schwarz Cutoff:          1E-12

   @RHF iter  22:  -173.48663597027780    7.61506e-05   1.82845e-06 DIIS
   @RHF iter  23:  -173.48663597085871   -5.80911e-10   3.30807e-07 DIIS
   @RHF iter  24:  -173.48663597087329   -1.45803e-11   9.29120e-08 DIIS
   @RHF iter  25:  -173.48663597087523   -1.93268e-12   1.83304e-08 DIIS
   @RHF iter  26:  -173.48663597087540   -1.70530e-13   1.51842e-09 DIIS
   @RHF iter  27:  -173.48663597087545   -5.68434e-14   9.87042e-11 DIIS
   @RHF iter  28:  -173.48663597087543    2.84217e-14   1.51517e-11 DIIS
   @RHF iter  29:  -173.48663597087543    0.00000e+00   5.58236e-12 DIIS
   @RHF iter  30:  -173.48663597087548   -5.68434e-14   1.84900e-12 DIIS
   @RHF iter  31:  -173.48663597087523    2.55795e-13   3.95411e-13 DIIS

  ==> Post-Iterations <==

	Orbital Energies (a.u.)
	-----------------------

	Doubly Occupied:                                                      

	   1A    -25.926883     2A    -20.240189     3A     -1.421202  
	   4A     -1.264822     5A     -0.613792     6A     -0.500406  
	   7A     -0.466224     8A     -0.466185     9A     -0.451005  
	  10A     -0.389092  

	Virtual:                                                              

	  11A      0.384634    12A      0.604832    13A      0.740197  

	Final Occupation by Irrep:
	          A 
	DOCC [    10 ]

  Energy converged.

  @RHF Final Energy:  -173.48663597087523

   => Energetics <=

    Nuclear Repulsion Energy =             21.6398637189221965
    One-Electron Energy =                -286.7733971042092662
    Two-Electron Energy =                  91.6468974144118107
    DFT Exchange-Correlation Energy =       0.0000000000000000
    Empirical Dispersion Energy =           0.0000000000000000
    Total Energy =                       -173.4866359708752839



Properties will be evaluated at   0.000000,   0.000000,   0.000000 Bohr
  ==> Properties <==


Properties computed using the SCF density matrix

  Nuclear Dipole Moment: (a.u.)
     X:    -2.8796      Y:    -2.1734      Z:    -2.9760

  Electronic Dipole Moment: (a.u.)
     X:     3.6203      Y:     2.7696      Z:     2.9760

  Dipole Moment: (a.u.)
     X:     0.7407      Y:     0.5962      Z:     0.0000     Total:     0.9508

  Dipole Moment: (Debye)
     X:     1.8826      Y:     1.5154      Z:     0.0000     Total:     2.4168


  Saving occupied orbitals to File 180.

*** tstop() called on Kevins-MacBook-Pro.local at Sun Dec  7 20:20:52 2014
Module time:
	user time   =       0.23 seconds =       0.00 minutes
	system time =       0.01 seconds =       0.00 minutes
	total time  =          1 seconds =       0.02 minutes
Total time:
	user time   =       0.73 seconds =       0.01 minutes
	system time =       0.04 seconds =       0.00 minutes
	total time  =          1 seconds =       0.02 minutes

*** tstart() called on Kevins-MacBook-Pro.local
*** at Sun Dec  7 20:20:52 2014


	**************************************************
	* TRANSQT2: Program to transform integrals from  *
	*           the SO basis to the MO basis.        *
	*                                                *
	*            Daniel, David, & Justin             *
	**************************************************


	Input parameters:
	-----------------
	Wave function   =	CCSD
	Backtransform   =	No
	Print Level     =	1
	Print TEIs      =	No
	Reference wfn   =	RHF
	Derivative      =	None
	Delete TEI File =	Yes
	Memory (Mbytes) =	256.0
	Cache Level     =	2
	Cache Type      =	LRU
	Chkpt Parameters:
	--------------------
	Number of irreps     = 1
	Number of SOs        = 13
	Number of MOs        = 13
	Number of active MOs = 13

	Label	# SOs	# FZDC	# DOCC	# SOCC	# VIRT	# FZVR
	-----	-----	------	------	------	------	------
	 A	   13	    0	    10	    0	    3	    0

	Nuclear Rep. energy (chkpt) =     21.63986371892220
	SCF energy          (chkpt) =   -173.48663597087523

	Presorting SO-basis two-electron integrals.
	Sorting File: SO Ints (pq,rs) nbuckets = 1
	Frozen-core energy =    0.000000000000000
	Starting first half-transformation.
	Sorting half-transformed integrals.
	Starting second half-transformation.
	Two-electron integral transformation complete.

*** tstop() called on Kevins-MacBook-Pro.local at Sun Dec  7 20:20:52 2014
Module time:
	user time   =       0.00 seconds =       0.00 minutes
	system time =       0.01 seconds =       0.00 minutes
	total time  =          0 seconds =       0.00 minutes
Total time:
	user time   =       0.74 seconds =       0.01 minutes
	system time =       0.05 seconds =       0.00 minutes
	total time  =          1 seconds =       0.02 minutes

*** tstart() called on Kevins-MacBook-Pro.local
*** at Sun Dec  7 20:20:52 2014


			**************************
			*                        *
			*         CCSORT         *
			*                        *
			**************************


	Input parameters:
	-----------------
	Wave function   =	CCSD
	Reference wfn   =	RHF
	Derivative      =	None
	Memory (Mbytes) =	256.0
	AO Basis        =	NONE
	Make (ab|cd)    =	True
	Make unpacked (ab|cd) =	False
	Cache Level     =	2
	Cache Type      =	LRU
	Local CC        =     No


	Chkpt Parameters:
	--------------------
	Number of irreps     = 1
	Number of MOs        = 13
	Number of active MOs = 13

	Label	# MOs	# FZDC	# DOCC	# SOCC	# VIRT	# FZVR
	-----	-----	------	------	------	------	------
	 A	   13	    0	    10	    0	    3	    0

	Nuclear Rep. energy (chkpt) =     21.63986371892220
	SCF energy          (chkpt) =   -173.48663597087523

	Size of irrep 0 of <ab|cd> integrals:      0.000 (MW) /      0.001 (MB)
	Total:                                     0.000 (MW) /      0.001 (MB)

	Size of irrep 0 of <ia|bc> integrals:      0.000 (MW) /      0.002 (MB)
	Total:                                     0.000 (MW) /      0.002 (MB)

	Size of irrep 0 of tijab amplitudes:       0.001 (MW) /      0.007 (MB)
	Total:                                     0.001 (MW) /      0.007 (MB)


	Sorting File: A <ij|kl> nbuckets = 1
	Sorting File: B(+) <ab|cd> nbuckets = 1
	Sorting File: C <ia|jb> nbuckets = 1
	Sorting File: D <ij|ab> nbuckets = 1
	Sorting File: E <ai|jk> nbuckets = 1
	Sorting File: F <ia|bc> nbuckets = 1
	Nuclear energy               =     21.63986371892220
	One-electron energy          =   -286.77339710420972
	Two-electron (AA) energy     =     36.01505836951095
	Two-electron (BB) energy     =     36.01505836951095
	Two-electron (AB) energy     =     55.63183904490117
	Two-electron energy          =     91.64689741441212
	Frozen-core energy (transqt) =      0.00000000000000
	Reference energy             =   -173.48663597087543

*** tstop() called on Kevins-MacBook-Pro.local at Sun Dec  7 20:20:52 2014
Module time:
	user time   =       0.02 seconds =       0.00 minutes
	system time =       0.02 seconds =       0.00 minutes
	total time  =          0 seconds =       0.00 minutes
Total time:
	user time   =       0.76 seconds =       0.01 minutes
	system time =       0.07 seconds =       0.00 minutes
	total time  =          1 seconds =       0.02 minutes

*** tstart() called on Kevins-MacBook-Pro.local
*** at Sun Dec  7 20:20:52 2014

			**************************
			*                        *
			*        CCENERGY        *
			*                        *
			**************************

	Nuclear Rep. energy (chkpt)   =   21.639863718922197
	SCF energy          (chkpt)   = -173.486635970875227
	Reference energy    (file100) = -173.486635970875426

	Input parameters:
	-----------------
	Wave function   =     CCSD
	Reference wfn   =     RHF
	Brueckner       =     No
	Memory (Mbytes) =     256.0
	Maxiter         =     50
	R_Convergence   =     1.0e-12
	E_Convergence   =     1.0e-06
	Restart         =     Yes
	DIIS            =     Yes
	AO Basis        =     NONE
	ABCD            =     NEW
	Cache Level     =     2
	Cache Type      =     LOW
	Print Level     =     1
	Num. of threads =     1
	# Amps to Print =     10
	Print MP2 Amps? =     No
	Analyze T2 Amps =     No
	Print Pair Ener =     No
	Local CC        =     No
	SCS-MP2         =     False
	SCSN-MP2        =     False
	SCS-CCSD        =     False

	            Solving CC Amplitude Equations
	            ------------------------------
  Iter             Energy              RMS        T1Diag      D1Diag    New D1Diag    D2Diag
  ----     ---------------------    ---------   ----------  ----------  ----------   --------
     0        -0.068855345677028    0.000e+00    0.000000    0.000000    0.000000    0.133387
     1        -0.090956714571982    6.527e-02    0.003021    0.011781    0.011781    0.186735
     2        -0.104946798657249    2.752e-02    0.005536    0.021344    0.021344    0.226224
     3        -0.104842643350165    2.320e-03    0.005727    0.021849    0.021849    0.227695
     4        -0.104931425921719    5.258e-04    0.005822    0.022124    0.022124    0.228040
     5        -0.104914905998108    1.030e-04    0.005834    0.022139    0.022139    0.227958
     6        -0.104916507510984    2.069e-05    0.005836    0.022135    0.022135    0.227954
     7        -0.104916732678015    4.129e-06    0.005836    0.022133    0.022133    0.227952
     8        -0.104916581723827    7.041e-07    0.005836    0.022133    0.022133    0.227952
     9        -0.104916616505616    2.595e-07    0.005836    0.022133    0.022133    0.227952
    10        -0.104916615840177    1.393e-07    0.005836    0.022133    0.022133    0.227952
    11        -0.104916615455805    5.456e-08    0.005836    0.022133    0.022133    0.227952
    12        -0.104916616312282    7.787e-09    0.005836    0.022133    0.022133    0.227952
    13        -0.104916616392722    1.211e-09    0.005836    0.022133    0.022133    0.227952
    14        -0.104916616393091    3.983e-10    0.005836    0.022133    0.022133    0.227952
    15        -0.104916616393424    2.055e-10    0.005836    0.022133    0.022133    0.227952
    16        -0.104916616395346    5.451e-11    0.005836    0.022133    0.022133    0.227952
    17        -0.104916616396105    1.933e-11    0.005836    0.022133    0.022133    0.227952
    18        -0.104916616396306    9.496e-12    0.005836    0.022133    0.022133    0.227952
    19        -0.104916616396110    3.003e-12    0.005836    0.022133    0.022133    0.227952
    20        -0.104916616396045    9.856e-13    0.005836    0.022133    0.022133    0.227952

	Iterations converged.


	Largest TIA Amplitudes:
	          5   0         0.0210824111
	          8   1         0.0134302194
	          2   0         0.0067374057
	          4   2         0.0032970832
	          8   2         0.0002237935
	          3   1        -0.0001058623
	          4   1        -0.0000859875
	          6   0        -0.0000517905
	          0   0         0.0000386538
	          1   1         0.0000314299

	Largest TIjAb Amplitudes:
	  5   5   0   0        -0.2219015294
	  4   4   2   2        -0.0784548471
	  4   8   2   1        -0.0476750055
	  8   4   1   2        -0.0476750055
	  8   8   1   1        -0.0470515578
	  4   4   1   1        -0.0437992953
	  8   8   2   2        -0.0422131058
	  4   8   1   2        -0.0349927030
	  8   4   2   1        -0.0349927030
	  3   8   1   1         0.0332789350

	SCF energy       (chkpt)              = -173.486635970875227
	Reference energy (file100)            = -173.486635970875426

	Opposite-spin MP2 correlation energy  =   -0.066804383463256
	Same-spin MP2 correlation energy      =   -0.002050962213772
	MP2 correlation energy                =   -0.068855345677028
      * MP2 total energy                      = -173.555491316552462

	Opposite-spin CCSD correlation energy =   -0.103147116062118
	Same-spin CCSD correlation energy     =   -0.001769500333925
	CCSD correlation energy               =   -0.104916616396045
      * CCSD total energy                     = -173.591552587271480


*** tstop() called on Kevins-MacBook-Pro.local at Sun Dec  7 20:20:52 2014
Module time:
	user time   =       0.22 seconds =       0.00 minutes
	system time =       0.22 seconds =       0.00 minutes
	total time  =          0 seconds =       0.00 minutes
Total time:
	user time   =       0.98 seconds =       0.02 minutes
	system time =       0.29 seconds =       0.00 minutes
	total time  =          1 seconds =       0.02 minutes

*** PSI4 exiting successfully. Buy a developer a beer!
