    -----------------------------------------------------------------------
          PSI4: An Open-Source Ab Initio Electronic Structure Package
                              PSI 4.0 Driver

               Git: Rev {master} 

    J. M. Turney, A. C. Simmonett, R. M. Parrish, E. G. Hohenstein,
    F. A. Evangelista, J. T. Fermann, B. J. Mintz, L. A. Burns, J. J. Wilke,
    M. L. Abrams, N. J. Russ, M. L. Leininger, C. L. Janssen, E. T. Seidl,
    W. D. Allen, H. F. Schaefer, R. A. King, E. F. Valeev, C. D. Sherrill,
    and T. D. Crawford, WIREs Comput. Mol. Sci. 2, 556-565 (2012)
    (doi: 10.1002/wcms.93)

                         Additional Contributions by
    A. E. DePrince, M. Saitow, U. Bozkaya, A. Yu. Sokolov
    -----------------------------------------------------------------------

    Process ID:    794
    PSI4DATADIR: /Users/kevinhannon/Programs/psi4private/lib
    Memory level set to 256.000 MB

  ==> Input File <==

--------------------------------------------------------------------------

# PYTHONPATH must include directory above plugin directory.
#     Define either externally or here, then import plugin.


# Path to plugin_prop.so
objdir = '/Users/kevinhannon/Programs/PsiPlugins_psi4public/plugin_prop'
# Path to data directory
datadir = 'data/'

import sys
sys.path.append(objdir)
import prop

sys.path.insert(0, './..')

import plugin_fragment

#molecule {
##O         -1.485163346097    -0.114724564047     0.000000000000
##H         -1.868415346097     0.762298435953     0.000000000000
#H         -0.533833346097     0.040507435953     0.000000000000
#--
##H        8.200             7.000             7.000
#units angstrom
#symmetry c1
#}

#molecule {
#H        200000000.00               200000000.000             200000000.000
#H        200000001.00               200000000.000             200000000.000
#--
#H        -1003.000             -1003.000             -1003.000
#H        -1002.000             -1003.000             -1003.000
#units angstrom
#symmetry c1
#}
molec--------------------------------------------------------------------------

*** tstart() called on Kevins-MacBook-Pro.local
*** at Tue Jan  6 09:21:10 2015

/Users/kevinhannon/Programs/PsiPlugins_psi4public/plugin_prop/plugin_prop.so loaded.
/Users/kevinhannon/Programs/Quantum_Programs/plugin_fragment/plugin_fragment.so loaded.

*** tstart() called on Kevins-MacBook-Pro.local
*** at Tue Jan  6 09:21:10 2015

	There are an even number of electrons - assuming singlet.
	Specify the multiplicity with the MULTP option in the
	input if this is incorrect


         ---------------------------------------------------------
                                   SCF
            by Justin Turney, Rob Parrish, and Andy Simmonett
                              RHF Reference
                        1 Threads,    256 MiB Core
         ---------------------------------------------------------

  ==> Geometry <==

    Molecular point group: c1
    Full point group: C1

    Geometry (in Angstrom), charge = 0, multiplicity = 1:

       Center              X                  Y                   Z       
    ------------   -----------------  -----------------  -----------------
           O         -2.407176088730    -1.666479945112    -1.578741396290
           H         -2.790428088730    -0.789456945112    -1.578741396290
           H         -1.455846088730    -1.511247945112    -1.578741396290
           F          2.077987257367     1.448244618935     1.421258603710
           H          3.277987257367     1.448244618935     1.421258603710

  Running in c1 symmetry.


	Rotational constants (cm^-1):
	A =    9.04598    B =    0.04574   C =    0.04557

	Rotational constants (MHz):
	A = 271191.61763    B = 1371.33495   C = 1366.27736
  Nuclear repulsion =   21.639863718922197

  Charge       = 0
  Multiplicity = 1
  Electrons    = 20
  Nalpha       = 10
  Nbeta        = 10

  ==> Algorithm <==

  SCF Algorithm Type is PK.
  DIIS enabled.
  MOM disabled.
  Fractional occupation disabled.
  Guess Type is CORE.
  Energy threshold   = 1.00e-06
  Density threshold  = 1.00e-12
  Integral threshold = 0.00e+00

  ==> Primary Basis <==

  Basis Set: STO-3G
    Number of shells: 9
    Number of basis function: 13
    Number of Cartesian functions: 13
    Spherical Harmonics?: true
    Max angular momentum: 1

  ==> Pre-Iterations <==

   -------------------------------------------------------
    Irrep   Nso     Nmo     Nalpha   Nbeta   Ndocc  Nsocc
   -------------------------------------------------------
     A         13      13       0       0       0       0
   -------------------------------------------------------
    Total      13      13      10      10      10       0
   -------------------------------------------------------

  Starting with a DF guess...

 OEINTS: Wrapper to libmints.
   by Justin Turney

   Calculation information:
      Number of atoms:                   5
      Number of AO shells:               9
      Number of SO shells:               9
      Number of primitives:             27
      Number of atomic orbitals:        13
      Number of basis functions:        13

      Number of irreps:                  1
      Number of functions per irrep: [  13 ]

      Overlap, kinetic, potential, dipole, and quadrupole integrals
        stored in file 35.

  ==> Integral Setup <==

  ==> DFJK: Density-Fitted J/K Matrices <==

    J tasked:                  Yes
    K tasked:                  Yes
    wK tasked:                  No
    OpenMP threads:              1
    Integrals threads:           1
    Memory (MB):               183
    Algorithm:                Core
    Integral Cache:           NONE
    Schwarz Cutoff:          1E-12
    Fitting Condition:       1E-12

   => Auxiliary Basis Set <=

  Basis Set: CC-PVDZ-JKFIT
    Number of shells: 75
    Number of basis function: 209
    Number of Cartesian functions: 237
    Spherical Harmonics?: true
    Max angular momentum: 3

  Minimum eigenvalue in the overlap matrix is 3.4428950414E-01.
  Using Symmetric Orthogonalization.
  SCF Guess: Core (One-Electron) Hamiltonian.

  ==> Iterations <==

                           Total Energy        Delta E     RMS |[F,P]|

   @DF-RHF iter   1:  -171.13009534213452   -1.71130e+02   8.70442e-02 
   @DF-RHF iter   2:  -170.53850342046445    5.91592e-01   6.51180e-02 DIIS
   @DF-RHF iter   3:  -161.56307960340891    8.97542e+00   1.05664e-01 DIIS
   @DF-RHF iter   4:  -173.36331873690500   -1.18002e+01   2.92917e-02 DIIS
   @DF-RHF iter   5:  -173.46282048347126   -9.95017e-02   1.16834e-02 DIIS
   @DF-RHF iter   6:  -173.47487223525619   -1.20518e-02   8.15014e-03 DIIS
   @DF-RHF iter   7:  -173.47486105230610    1.11830e-05   8.58811e-03 DIIS
   @DF-RHF iter   8:  -173.47588493432951   -1.02388e-03   8.19125e-03 DIIS
   @DF-RHF iter   9:  -173.48394305910355   -8.05812e-03   4.06575e-03 DIIS
   @DF-RHF iter  10:  -173.48668585609619   -2.74280e-03   4.45522e-04 DIIS
   @DF-RHF iter  11:  -173.48670858032912   -2.27242e-05   1.53025e-04 DIIS
   @DF-RHF iter  12:  -173.48671211898679   -3.53866e-06   4.01531e-06 DIIS
   @DF-RHF iter  13:  -173.48671212088544   -1.89866e-09   1.35675e-07 DIIS
   @DF-RHF iter  14:  -173.48671212089457   -9.12337e-12   2.36155e-08 DIIS
   @DF-RHF iter  15:  -173.48671212089494   -3.69482e-13   3.04103e-09 DIIS
   @DF-RHF iter  16:  -173.48671212089488    5.68434e-14   6.20012e-10 DIIS
   @DF-RHF iter  17:  -173.48671212089494   -5.68434e-14   1.45478e-10 DIIS
   @DF-RHF iter  18:  -173.48671212089494    0.00000e+00   2.39248e-11 DIIS
   @DF-RHF iter  19:  -173.48671212089502   -8.52651e-14   6.80951e-12 DIIS
   @DF-RHF iter  20:  -173.48671212089474    2.84217e-13   2.14058e-12 DIIS
   @DF-RHF iter  21:  -173.48671212089482   -8.52651e-14   1.07958e-13 DIIS

  DF guess converged.

  ==> Integral Setup <==

 MINTS: Wrapper to libmints.
   by Justin Turney

   Calculation information:
      Number of atoms:                   5
      Number of AO shells:               9
      Number of SO shells:               9
      Number of primitives:             27
      Number of atomic orbitals:        13
      Number of basis functions:        13

      Number of irreps:                  1
      Integral cutoff                 0.00e+00
      Number of functions per irrep: [  13 ]

      Overlap, kinetic, potential, dipole, and quadrupole integrals
        stored in file 35.

      Computing two-electron integrals...done
      Computed 4077 non-zero two-electron integrals.
        Stored in file 33.

	Batch   1 pq = [       0,      91] index = [             0,4186]
  ==> DiskJK: Disk-Based J/K Matrices <==

    J tasked:                  Yes
    K tasked:                  Yes
    wK tasked:                  No
    Memory (MB):               183
    Schwarz Cutoff:          1E-12

   @RHF iter  22:  -173.48663597027786    7.61506e-05   1.82845e-06 DIIS
   @RHF iter  23:  -173.48663597085860   -5.80741e-10   3.30807e-07 DIIS
   @RHF iter  24:  -173.48663597087361   -1.50067e-11   9.29120e-08 DIIS
   @RHF iter  25:  -173.48663597087543   -1.81899e-12   1.83304e-08 DIIS
   @RHF iter  26:  -173.48663597087537    5.68434e-14   1.51842e-09 DIIS
   @RHF iter  27:  -173.48663597087540   -2.84217e-14   9.87039e-11 DIIS
   @RHF iter  28:  -173.48663597087537    2.84217e-14   1.51516e-11 DIIS
   @RHF iter  29:  -173.48663597087540   -2.84217e-14   5.58231e-12 DIIS
   @RHF iter  30:  -173.48663597087534    5.68434e-14   1.84882e-12 DIIS
   @RHF iter  31:  -173.48663597087548   -1.42109e-13   3.95440e-13 DIIS

  ==> Post-Iterations <==

	Orbital Energies (a.u.)
	-----------------------

	Doubly Occupied:                                                      

	   1A    -25.926883     2A    -20.240189     3A     -1.421202  
	   4A     -1.264822     5A     -0.613792     6A     -0.500406  
	   7A     -0.466224     8A     -0.466185     9A     -0.451005  
	  10A     -0.389092  

	Virtual:                                                              

	  11A      0.384634    12A      0.604832    13A      0.740197  

	Final Occupation by Irrep:
	          A 
	DOCC [    10 ]

  Energy converged.

  @RHF Final Energy:  -173.48663597087548

   => Energetics <=

    Nuclear Repulsion Energy =             21.6398637189221965
    One-Electron Energy =                -286.7733971042097210
    Two-Electron Energy =                  91.6468974144120665
    DFT Exchange-Correlation Energy =       0.0000000000000000
    Empirical Dispersion Energy =           0.0000000000000000
    Total Energy =                       -173.4866359708754544



Properties will be evaluated at   0.000000,   0.000000,   0.000000 Bohr
  ==> Properties <==


Properties computed using the SCF density matrix

  Nuclear Dipole Moment: (a.u.)
     X:    -2.8796      Y:    -2.1734      Z:    -2.9760

  Electronic Dipole Moment: (a.u.)
     X:     3.6203      Y:     2.7696      Z:     2.9760

  Dipole Moment: (a.u.)
     X:     0.7407      Y:     0.5962      Z:     0.0000     Total:     0.9508

  Dipole Moment: (Debye)
     X:     1.8826      Y:     1.5154      Z:     0.0000     Total:     2.4168


  Saving occupied orbitals to File 180.

*** tstop() called on Kevins-MacBook-Pro.local at Tue Jan  6 09:21:10 2015
Module time:
	user time   =       0.25 seconds =       0.00 minutes
	system time =       0.02 seconds =       0.00 minutes
	total time  =          0 seconds =       0.00 minutes
Total time:
	user time   =       0.28 seconds =       0.00 minutes
	system time =       0.03 seconds =       0.00 minutes
	total time  =          0 seconds =       0.00 minutes
Reading options from the PLUGIN_FRAGMENT block
Calling plugin plugin_fragment.so.


         ---------------------------------------------------------
                            ORBITAL LOCALIZATION
                        by Francesco A. Evangelista
         ---------------------------------------------------------

  ==> Details <==

    Number of fragments: 2
  Fragment contains 3 atoms
The number of basis functions on A are 7
The number of basis functions on B are 6number of electrons 10
 # lo #
 Irrep: 1
      1:  1.0000000
      2:  1.0000000
      3:  1.0000000
      4:  1.0000000
      5:  1.0000000
      6:  0.0000000
      7:  0.0000000
      8:  0.0000000
      9:  0.0000000
     10: -0.0000000


 # lv #
 Irrep: 1
      1:  1.0000000
      2:  1.0000000
      3:  0.0000000

  ## U (Symmetry 0) ##
  Irrep: 1 Size: 13 x 13

                 1                   2                   3                   4                   5

    1    -0.00000000003961    -0.00000000014472    -0.00000000010002     0.00000000009899     0.00000000080365
    2     0.92377216238611    -0.07229540891194    -0.27370980611283     0.25781606331062     0.00567321667518
    3     0.00000013523432     0.00000081101716     0.00000013235924    -0.00000009032171    -0.00000077430781
    4     0.08924375339829     0.98922853934548     0.05035961125660     0.01337329295514    -0.10367021757740
    5     0.25382026341596    -0.11308963967376     0.41967355460353    -0.47980789842118    -0.71864072765056
    6    -0.00000041466656    -0.00000002166676    -0.00000067052114     0.00000076506981    -0.00000013406470
    7    -0.00000887516646    -0.00000066906759    -0.00001460793379     0.00001648627545    -0.00001688170734
    8     0.00000248093090     0.00000018095825     0.00000408355926    -0.00000460892432     0.00000466641724
    9     0.27104234854240     0.03168184520545     0.44648346813751    -0.50340089283402     0.68758443761966
   10     0.02814007055508    -0.04906388566308     0.73964415201336     0.67061460910681     0.00185633988056
   11     0.00000000000000     0.00000000000000     0.00000000000000     0.00000000000000     0.00000000000000
   12     0.00000000000000     0.00000000000000     0.00000000000000     0.00000000000000     0.00000000000000
   13     0.00000000000000     0.00000000000000     0.00000000000000     0.00000000000000     0.00000000000000

                 6                   7                   8                   9                  10

    1    -0.00073788026351    -0.00266347346029    -0.00529844575209     0.99988922225767     0.01363198912143
    2    -0.00000000357141    -0.00000000169509    -0.00000000046071    -0.00000000004361     0.00000000019728
    3     0.37671080946144     0.51731509055617     0.57372822435300    -0.00227295935285     0.51117983269393
    4    -0.00000013120905    -0.00000057341674    -0.00000055419557     0.00000000196847    -0.00000046178141
    5     0.00000368806241    -0.00000183389538    -0.00000120241859     0.00000000142596    -0.00000068216294
    6    -0.03590694379732    -0.77570781481704     0.18693625372133    -0.00930451870788     0.60162807480531
    7     0.89076693621175    -0.30489750823584    -0.00983343655277     0.00438526796599    -0.33683207526086
    8    -0.25166123562945    -0.19414659005952     0.79734935353456     0.01051533286263    -0.51292997589987
    9     0.00002783034837    -0.00000774015822    -0.00000631052540     0.00000003254860    -0.00000487852361
   10    -0.00000000262587     0.00000000566417    -0.00000000042190     0.00000000005378    -0.00000000313577
   11     0.00000000000000     0.00000000000000     0.00000000000000     0.00000000000000     0.00000000000000
   12     0.00000000000000     0.00000000000000     0.00000000000000     0.00000000000000     0.00000000000000
   13     0.00000000000000     0.00000000000000     0.00000000000000     0.00000000000000     0.00000000000000

                11                  12                  13

    1     0.00000000000000     0.00000000000000     0.00000000000000
    2     0.00000000000000     0.00000000000000     0.00000000000000
    3     0.00000000000000     0.00000000000000     0.00000000000000
    4     0.00000000000000     0.00000000000000     0.00000000000000
    5     0.00000000000000     0.00000000000000     0.00000000000000
    6     0.00000000000000     0.00000000000000     0.00000000000000
    7     0.00000000000000     0.00000000000000     0.00000000000000
    8     0.00000000000000     0.00000000000000     0.00000000000000
    9     0.00000000000000     0.00000000000000     0.00000000000000
   10     0.00000000000000     0.00000000000000     0.00000000000000
   11    -0.00000253068060    -0.00001423732055    -0.99999999989545
   12    -0.64740862726636    -0.76214307658412     0.00001248925974
   13    -0.76214307668225     0.64740862723028    -0.00000728862346



  ## S_ao (Symmetry 0) ##
  Irrep: 1 Size: 13 x 13

                 1                   2                   3                   4                   5

    1     1.00000000000000    -0.00000000000000     0.00000000000000    -0.00000000000000    -0.00000000000000
    2    -0.00000000000000     1.00000000000000     0.00000000000000    -0.00000000000000    -0.00000000000000
    3     0.00000000000000     0.00000000000000     1.00000000000000    -0.00000000000000     0.00000000000000
    4    -0.00000000000000    -0.00000000000000    -0.00000000000000     1.00000000000000    -0.00000000000000
    5    -0.00000000000000    -0.00000000000000     0.00000000000000    -0.00000000000000     1.00000000000000
    6     0.00000000000000    -0.00000000000000    -0.00000000000000    -0.00000000000000     0.00000000000000
    7    -0.00000000000000     0.00000000000000    -0.00000000000000     0.00000000000000    -0.00000000000000
    8     0.00000000000000     0.00000000000000     0.00000000000000     0.00000000000000    -0.00000000000000
    9     0.00000000000000     0.00000000000000    -0.00000000000000    -0.00000000000000    -0.00000000000000
   10    -0.00000000000000     0.00000000000000     0.00000000000000    -0.00000000000000     0.00000000000000
   11     0.00000000000000     0.00000000000000     0.00000000000000     0.00000000000000    -0.00000000000000
   12     0.00000000000000    -0.00000000000000     0.00000000000000    -0.00000000000000     0.00000000000000
   13     0.00000000000000     0.00000000000000     0.00000000000000     0.00000000000000     0.00000000000000

                 6                   7                   8                   9                  10

    1     0.00000000000000    -0.00000000000000     0.00000000000000     0.00000000000000    -0.00000000000000
    2    -0.00000000000000     0.00000000000000     0.00000000000000     0.00000000000000     0.00000000000000
    3    -0.00000000000000    -0.00000000000000     0.00000000000000    -0.00000000000000     0.00000000000000
    4    -0.00000000000000     0.00000000000000     0.00000000000000    -0.00000000000000    -0.00000000000000
    5     0.00000000000000    -0.00000000000000    -0.00000000000000    -0.00000000000000     0.00000000000000
    6     1.00000000000000     0.00000000000000    -0.00000000000000     0.00000000000000     0.00000000000000
    7     0.00000000000000     1.00000000000000     0.00000000000000     0.00000000000000     0.00000000000000
    8    -0.00000000000000     0.00000000000000     1.00000000000000     0.00000000000000     0.00000000000000
    9     0.00000000000000     0.00000000000000     0.00000000000000     1.00000000000000     0.00000000000000
   10     0.00000000000000     0.00000000000000     0.00000000000000     0.00000000000000     1.00000000000000
   11    -0.00000000000000     0.00000000000000    -0.00000000000000    -0.00000000000000     0.00000000000000
   12     0.00000000000000    -0.00000000000000     0.00000000000000     0.00000000000000    -0.00000000000000
   13    -0.00000000000000    -0.00000000000000    -0.00000000000000    -0.00000000000000    -0.00000000000000

                11                  12                  13

    1     0.00000000000000     0.00000000000000     0.00000000000000
    2     0.00000000000000    -0.00000000000000     0.00000000000000
    3     0.00000000000000     0.00000000000000     0.00000000000000
    4     0.00000000000000    -0.00000000000000     0.00000000000000
    5    -0.00000000000000     0.00000000000000     0.00000000000000
    6    -0.00000000000000     0.00000000000000    -0.00000000000000
    7     0.00000000000000    -0.00000000000000    -0.00000000000000
    8    -0.00000000000000     0.00000000000000    -0.00000000000000
    9    -0.00000000000000     0.00000000000000    -0.00000000000000
   10     0.00000000000000    -0.00000000000000    -0.00000000000000
   11     1.00000000000000    -0.00000000000000    -0.00000000000000
   12    -0.00000000000000     1.00000000000000    -0.00000000000000
   13    -0.00000000000000    -0.00000000000000     1.00000000000000



  ## C (Symmetry 0) ##
  Irrep: 1 Size: 13 x 13

                 1                   2                   3                   4                   5

    1     0.96736123037576     0.16167561801176    -0.21392757304024     0.20696214326057     0.05154939529375
    2    -0.19687206173377    -0.84396187513208    -0.29104510649499     0.26861673755922    -0.27749953774154
    3     0.02822541485220    -0.04891784759989     0.73977189618550     0.67048040034170     0.00198582812998
    4    -0.03726810691748     0.01260016068819    -0.06012477613718     0.06690101001886     0.64436442937170
    5     0.25204623128696    -0.12439498337060     0.41966860601520    -0.48355298145430     0.26890631822517
    6     0.16834540372501    -0.19920577689605     0.30416294546278    -0.35684579679727    -0.11303662231239
    7    -0.05612988013704    -0.09569941832584    -0.06740847923566     0.06822457530823     0.52968404748118
    8    -0.00000000000701    -0.00000000000360     0.00000000000458     0.00000000000779     0.00000006722278
    9     0.00000000003929     0.00000000002019    -0.00000000002568    -0.00000000004362    -0.00000037665832
   10     0.00000000000000    -0.00000000000000     0.00000000000000     0.00000000000000     0.00000000000290
   11     0.00000000009633     0.00000000004951    -0.00000000006295    -0.00000000010694    -0.00000092337778
   12    -0.00000000000000    -0.00000000000000     0.00000000000000    -0.00000000000000     0.00000000000555
   13    -0.00000000011180    -0.00000000005746     0.00000000007307     0.00000000012412     0.00000107172727

                 6                   7                   8                   9                  10

    1    -0.00000018144895     0.00000002853771     0.00000000784443    -0.00000000014313    -0.00000000150014
    2     0.00000112873707    -0.00000022088193    -0.00000006161611     0.00000000111490     0.00000001234209
    3     0.00000000007118     0.00000000009398    -0.00000000000936     0.00000000000158    -0.00000000005603
    4     0.00000167058605    -0.00000016212791    -0.00000005086444     0.00000000095394     0.00000001503249
    5     0.00000038301058    -0.00000004386460    -0.00000000713447     0.00000000013067    -0.00000000246143
    6    -0.00000015934575     0.00000000950221    -0.00000000353086     0.00000000015562     0.00000000745398
    7    -0.00000176560320     0.00000044115927     0.00000013052007    -0.00000000244094    -0.00000003377375
    8     0.09425024490967     0.08899082167215     0.15256423554033     0.99375941078631     0.17767948606243
    9    -0.36334089885679    -0.30005639499543    -0.62086028922906     0.02556563449243    -0.67308188956201
   10     0.65923999414744    -0.36179754748885     0.37616606953392     0.00889369363507    -0.54122560460874
   11    -0.03659585500314    -0.54695136628615     0.11131530503941    -0.00491762787642     0.39833229510955
   12     0.64984186105792     0.02278913114042    -0.70321973884674    -0.00710514552505     0.28743299549286
   13    -0.06122460770616    -0.51155147126547     0.05052624451664    -0.00855063257627     0.30236697904818

                11                  12                  13

    1    -0.08838665365552    -0.09784706341384     0.00000017675505
    2     0.59116836853620     0.65008485494700    -0.00000123801587
    3     0.00002087733616     0.00002377253488     0.00000000268837
    4    -0.40925002660137     0.84262067451507    -0.00000001512556
    5     0.78866681697011     0.17014922848153     0.00000023678516
    6    -1.15657836251134    -0.03387656023798    -0.00000024835683
    7     0.09173550718529    -1.14582420042757     0.00000261693283
    8     0.00000000387816    -0.00000023561245    -0.05635205194225
    9    -0.00000001377525     0.00000090829944     0.31574813993484
   10    -0.00000001458064    -0.00000164801176    -0.00000242788911
   11    -0.00000001649002     0.00000009150589     0.77405649174848
   12     0.00000000194955    -0.00000162451001    -0.00000465156039
   13    -0.00000001579442     0.00000015307187    -0.89841608300668



  ## DF (Symmetry 0) ##
  Irrep: 1 Size: 13 x 13

                 1                   2                   3                   4                   5

    1     1.05318243089866    -0.22334332197219     0.00000417135061     0.02591033754587     0.04771422690259
    2    -0.22334332197219     0.98489845452749    -0.00002779618564    -0.14663808455691    -0.27129053523162
    3     0.00000417135061    -0.00002779618564     0.99999999899900    -0.00001148717899    -0.00002051014073
    4     0.02591033754587    -0.14663808455691    -0.00001148717899     0.42484392753200     0.10473031977783
    5     0.04771422690259    -0.27129053523162    -0.00002051014073     0.10473031977783     0.56125724732338
    6    -0.01410528139219    -0.01803270587049     0.00002495160699    -0.12378179117059     0.33701625022158
    7    -0.01392480347261    -0.01722484170196     0.00002532395274     0.35081279804504     0.07891317051698
    8    -0.00000001031546     0.00000006197863     0.00000000014734     0.00000018220054     0.00000004887281
    9     0.00000003412190    -0.00000020936956    -0.00000000080660    -0.00000077956653    -0.00000022118005
   10    -0.00000012618168     0.00000079417453     0.00000000003974     0.00000113271552     0.00000026701638
   11    -0.00000005619915     0.00000033372229    -0.00000000202902    -0.00000056713733    -0.00000024005879
   12    -0.00000012320902     0.00000077533461     0.00000000003888     0.00000112200851     0.00000025220684
   13     0.00000005159412    -0.00000025282617     0.00000000219533     0.00000067321327     0.00000028602732

                 6                   7                   8                   9                  10

    1    -0.01410528139219    -0.01392480347261    -0.00000001031546     0.00000003412190    -0.00000012618168
    2    -0.01803270587049    -0.01722484170196     0.00000006197863    -0.00000020936956     0.00000079417453
    3     0.00002495160699     0.00002532395274     0.00000000014734    -0.00000000080660     0.00000000003974
    4    -0.12378179117059     0.35081279804504     0.00000018220054    -0.00000077956653     0.00000113271552
    5     0.33701625022158     0.07891317051698     0.00000004887281    -0.00000022118005     0.00000026701638
    6     0.30065441457239    -0.09510784050686    -0.00000002083286     0.00000009481117    -0.00000011384638
    7    -0.09510784050686     0.30207262802033    -0.00000008005553     0.00000025126327    -0.00000125621032
    8    -0.00000002083286    -0.00000008005553     1.05920608726720    -0.24985506359091    -0.00000013681690
    9     0.00000009481117     0.00000025126327    -0.24985506359091     1.06121077942482     0.00000076660298
   10    -0.00000011384638    -0.00000125621032    -0.00000013681690     0.00000076660298     0.99999999999163
   11     0.00000010761038    -0.00000066470288     0.03074845311618    -0.15993420256789     0.00000187932396
   12    -0.00000009870923    -0.00000123878093    -0.00000026212534     0.00000146872303    -0.00000000001373
   13    -0.00000011420475     0.00000044651834     0.00164181569185    -0.05936638441206    -0.00000218125518

                11                  12                  13

    1    -0.00000005619915    -0.00000012320902     0.00000005159412
    2     0.00000033372229     0.00000077533461    -0.00000025282617
    3    -0.00000000202902     0.00000000003888     0.00000000219533
    4    -0.00000056713733     0.00000112200851     0.00000067321327
    5    -0.00000024005879     0.00000025220684     0.00000028602732
    6     0.00000010761038    -0.00000009870923    -0.00000011420475
    7    -0.00000066470288    -0.00000123878093     0.00000044651834
    8     0.03074845311618    -0.00000026212534     0.00164181569185
    9    -0.15993420256789     0.00000146872303    -0.05936638441206
   10     0.00000187932396    -0.00000000001373    -0.00000218125518
   11     0.47157895121374     0.00000360057115     0.40814326887917
   12     0.00000360057115     0.99999999997596    -0.00000417903722
   13     0.40814326887917    -0.00000417903722     0.35948516506492



 MINTS: Wrapper to libmints.
   by Justin Turney

   Calculation information:
      Number of atoms:                   5
      Number of AO shells:               9
      Number of SO shells:               9
      Number of primitives:             27
      Number of atomic orbitals:        13
      Number of basis functions:        13

      Number of irreps:                  1
      Integral cutoff                 1.00e-12
      Number of functions per irrep: [  13 ]

      Overlap, kinetic, potential, dipole, and quadrupole integrals
        stored in file 35.

      Computing two-electron integrals...done
      Computed 1577 non-zero two-electron integrals.
        Stored in file 33.

	Batch   1 pq = [       0,      91] index = [             0,4186]
 MINTS: Wrapper to libmints.
   by Justin Turney

   Calculation information:
      Number of atoms:                   5
      Number of AO shells:               9
      Number of SO shells:               9
      Number of primitives:             27
      Number of atomic orbitals:        13
      Number of basis functions:        13

      Number of irreps:                  1
      Integral cutoff                 1.00e-12
      Number of functions per irrep: [  13 ]

      Overlap, kinetic, potential, dipole, and quadrupole integrals
        stored in file 35.

      Computing two-electron integrals...done
      Computed 1577 non-zero two-electron integrals.
        Stored in file 33.

	Batch   1 pq = [       0,      91] index = [             0,4186]
 MINTS: Wrapper to libmints.
   by Justin Turney

   Calculation information:
      Number of atoms:                   5
      Number of AO shells:               9
      Number of SO shells:               9
      Number of primitives:             27
      Number of atomic orbitals:        13
      Number of basis functions:        13

      Number of irreps:                  1
      Integral cutoff                 1.00e-12
      Number of functions per irrep: [  13 ]

      Overlap, kinetic, potential, dipole, and quadrupole integrals
        stored in file 35.

      Computing two-electron integrals...done
      Computed 1577 non-zero two-electron integrals.
        Stored in file 33.

	Batch   1 pq = [       0,      91] index = [             0,4186]
  ==> DiskJK: Disk-Based J/K Matrices <==

    J tasked:                  Yes
    K tasked:                  Yes
    wK tasked:                  No
    Memory (MB):              7629
    Schwarz Cutoff:          1E-12

  ==> DiskJK: Disk-Based J/K Matrices <==

    J tasked:                  Yes
    K tasked:                  Yes
    wK tasked:                  No
    Memory (MB):              7629
    Schwarz Cutoff:          1E-12

  ==> DiskJK: Disk-Based J/K Matrices <==

    J tasked:                  Yes
    K tasked:                  Yes
    wK tasked:                  No
    Memory (MB):              7629
    Schwarz Cutoff:          1E-12

  ## C (Symmetry 0) ##
  Irrep: 1 Size: 13 x 13

                 1                   2                   3                   4                   5

    1     0.96736123037576     0.16167561801176    -0.21392757304024     0.20696214326057     0.05154939529375
    2    -0.19687206173377    -0.84396187513208    -0.29104510649499     0.26861673755922    -0.27749953774154
    3     0.02822541485220    -0.04891784759989     0.73977189618550     0.67048040034170     0.00198582812998
    4    -0.03726810691748     0.01260016068819    -0.06012477613718     0.06690101001886     0.64436442937170
    5     0.25204623128696    -0.12439498337060     0.41966860601520    -0.48355298145430     0.26890631822517
    6     0.16834540372501    -0.19920577689605     0.30416294546278    -0.35684579679727    -0.11303662231239
    7    -0.05612988013704    -0.09569941832584    -0.06740847923566     0.06822457530823     0.52968404748118
    8    -0.00000000000701    -0.00000000000360     0.00000000000458     0.00000000000779     0.00000006722278
    9     0.00000000003929     0.00000000002019    -0.00000000002568    -0.00000000004362    -0.00000037665832
   10     0.00000000000000    -0.00000000000000     0.00000000000000     0.00000000000000     0.00000000000290
   11     0.00000000009633     0.00000000004951    -0.00000000006295    -0.00000000010694    -0.00000092337778
   12    -0.00000000000000    -0.00000000000000     0.00000000000000    -0.00000000000000     0.00000000000555
   13    -0.00000000011180    -0.00000000005746     0.00000000007307     0.00000000012412     0.00000107172727

                 6                   7                   8                   9                  10

    1    -0.00000018144895     0.00000002853771     0.00000000784443    -0.00000000014313    -0.00000000150014
    2     0.00000112873707    -0.00000022088193    -0.00000006161611     0.00000000111490     0.00000001234209
    3     0.00000000007118     0.00000000009398    -0.00000000000936     0.00000000000158    -0.00000000005603
    4     0.00000167058605    -0.00000016212791    -0.00000005086444     0.00000000095394     0.00000001503249
    5     0.00000038301058    -0.00000004386460    -0.00000000713447     0.00000000013067    -0.00000000246143
    6    -0.00000015934575     0.00000000950221    -0.00000000353086     0.00000000015562     0.00000000745398
    7    -0.00000176560320     0.00000044115927     0.00000013052007    -0.00000000244094    -0.00000003377375
    8     0.09425024490967     0.08899082167215     0.15256423554033     0.99375941078631     0.17767948606243
    9    -0.36334089885679    -0.30005639499543    -0.62086028922906     0.02556563449243    -0.67308188956201
   10     0.65923999414744    -0.36179754748885     0.37616606953392     0.00889369363507    -0.54122560460874
   11    -0.03659585500314    -0.54695136628615     0.11131530503941    -0.00491762787642     0.39833229510955
   12     0.64984186105792     0.02278913114042    -0.70321973884674    -0.00710514552505     0.28743299549286
   13    -0.06122460770616    -0.51155147126547     0.05052624451664    -0.00855063257627     0.30236697904818

                11                  12                  13

    1    -0.08838665365552    -0.09784706341384     0.00000017675505
    2     0.59116836853620     0.65008485494700    -0.00000123801587
    3     0.00002087733616     0.00002377253488     0.00000000268837
    4    -0.40925002660137     0.84262067451507    -0.00000001512556
    5     0.78866681697011     0.17014922848153     0.00000023678516
    6    -1.15657836251134    -0.03387656023798    -0.00000024835683
    7     0.09173550718529    -1.14582420042757     0.00000261693283
    8     0.00000000387816    -0.00000023561245    -0.05635205194225
    9    -0.00000001377525     0.00000090829944     0.31574813993484
   10    -0.00000001458064    -0.00000164801176    -0.00000242788911
   11    -0.00000001649002     0.00000009150589     0.77405649174848
   12     0.00000000194955    -0.00000162451001    -0.00000465156039
   13    -0.00000001579442     0.00000015307187    -0.89841608300668




nAocc = 5	
 nBocc = 5 
  ## CAocc (Symmetry 0) ##
  Irrep: 1 Size: 13 x 5

                 1                   2                   3                   4                   5

    1     0.96736123037576     0.16167561801176    -0.21392757304024     0.20696214326057     0.05154939529375
    2    -0.19687206173377    -0.84396187513208    -0.29104510649499     0.26861673755922    -0.27749953774154
    3     0.02822541485220    -0.04891784759989     0.73977189618550     0.67048040034170     0.00198582812998
    4    -0.03726810691748     0.01260016068819    -0.06012477613718     0.06690101001886     0.64436442937170
    5     0.25204623128696    -0.12439498337060     0.41966860601520    -0.48355298145430     0.26890631822517
    6     0.16834540372501    -0.19920577689605     0.30416294546278    -0.35684579679727    -0.11303662231239
    7    -0.05612988013704    -0.09569941832584    -0.06740847923566     0.06822457530823     0.52968404748118
    8    -0.00000000000701    -0.00000000000360     0.00000000000458     0.00000000000779     0.00000006722278
    9     0.00000000003929     0.00000000002019    -0.00000000002568    -0.00000000004362    -0.00000037665832
   10     0.00000000000000    -0.00000000000000     0.00000000000000     0.00000000000000     0.00000000000290
   11     0.00000000009633     0.00000000004951    -0.00000000006295    -0.00000000010694    -0.00000092337778
   12    -0.00000000000000    -0.00000000000000     0.00000000000000    -0.00000000000000     0.00000000000555
   13    -0.00000000011180    -0.00000000005746     0.00000000007307     0.00000000012412     0.00000107172727



  ## CBocc (Symmetry 0) ##
  Irrep: 1 Size: 13 x 5

                 1                   2                   3                   4                   5

    1    -0.00000018144895     0.00000002853771     0.00000000784443    -0.00000000014313    -0.00000000150014
    2     0.00000112873707    -0.00000022088193    -0.00000006161611     0.00000000111490     0.00000001234209
    3     0.00000000007118     0.00000000009398    -0.00000000000936     0.00000000000158    -0.00000000005603
    4     0.00000167058605    -0.00000016212791    -0.00000005086444     0.00000000095394     0.00000001503249
    5     0.00000038301058    -0.00000004386460    -0.00000000713447     0.00000000013067    -0.00000000246143
    6    -0.00000015934575     0.00000000950221    -0.00000000353086     0.00000000015562     0.00000000745398
    7    -0.00000176560320     0.00000044115927     0.00000013052007    -0.00000000244094    -0.00000003377375
    8     0.09425024490967     0.08899082167215     0.15256423554033     0.99375941078631     0.17767948606243
    9    -0.36334089885679    -0.30005639499543    -0.62086028922906     0.02556563449243    -0.67308188956201
   10     0.65923999414744    -0.36179754748885     0.37616606953392     0.00889369363507    -0.54122560460874
   11    -0.03659585500314    -0.54695136628615     0.11131530503941    -0.00491762787642     0.39833229510955
   12     0.64984186105792     0.02278913114042    -0.70321973884674    -0.00710514552505     0.28743299549286
   13    -0.06122460770616    -0.51155147126547     0.05052624451664    -0.00855063257627     0.30236697904818



  ## CBocc (Symmetry 0) ##
  Irrep: 1 Size: 13 x 10

                 1                   2                   3                   4                   5

    1     0.96736123037576     0.16167561801176    -0.21392757304024     0.20696214326057     0.05154939529375
    2    -0.19687206173377    -0.84396187513208    -0.29104510649499     0.26861673755922    -0.27749953774154
    3     0.02822541485220    -0.04891784759989     0.73977189618550     0.67048040034170     0.00198582812998
    4    -0.03726810691748     0.01260016068819    -0.06012477613718     0.06690101001886     0.64436442937170
    5     0.25204623128696    -0.12439498337060     0.41966860601520    -0.48355298145430     0.26890631822517
    6     0.16834540372501    -0.19920577689605     0.30416294546278    -0.35684579679727    -0.11303662231239
    7    -0.05612988013704    -0.09569941832584    -0.06740847923566     0.06822457530823     0.52968404748118
    8    -0.00000000000701    -0.00000000000360     0.00000000000458     0.00000000000779     0.00000006722278
    9     0.00000000003929     0.00000000002019    -0.00000000002568    -0.00000000004362    -0.00000037665832
   10     0.00000000000000    -0.00000000000000     0.00000000000000     0.00000000000000     0.00000000000290
   11     0.00000000009633     0.00000000004951    -0.00000000006295    -0.00000000010694    -0.00000092337778
   12    -0.00000000000000    -0.00000000000000     0.00000000000000    -0.00000000000000     0.00000000000555
   13    -0.00000000011180    -0.00000000005746     0.00000000007307     0.00000000012412     0.00000107172727

                 6                   7                   8                   9                  10

    1    -0.00000018144895     0.00000002853771     0.00000000784443    -0.00000000014313    -0.00000000150014
    2     0.00000112873707    -0.00000022088193    -0.00000006161611     0.00000000111490     0.00000001234209
    3     0.00000000007118     0.00000000009398    -0.00000000000936     0.00000000000158    -0.00000000005603
    4     0.00000167058605    -0.00000016212791    -0.00000005086444     0.00000000095394     0.00000001503249
    5     0.00000038301058    -0.00000004386460    -0.00000000713447     0.00000000013067    -0.00000000246143
    6    -0.00000015934575     0.00000000950221    -0.00000000353086     0.00000000015562     0.00000000745398
    7    -0.00000176560320     0.00000044115927     0.00000013052007    -0.00000000244094    -0.00000003377375
    8     0.09425024490967     0.08899082167215     0.15256423554033     0.99375941078631     0.17767948606243
    9    -0.36334089885679    -0.30005639499543    -0.62086028922906     0.02556563449243    -0.67308188956201
   10     0.65923999414744    -0.36179754748885     0.37616606953392     0.00889369363507    -0.54122560460874
   11    -0.03659585500314    -0.54695136628615     0.11131530503941    -0.00491762787642     0.39833229510955
   12     0.64984186105792     0.02278913114042    -0.70321973884674    -0.00710514552505     0.28743299549286
   13    -0.06122460770616    -0.51155147126547     0.05052624451664    -0.00855063257627     0.30236697904818



  ## GA (Symmetry 0) ##
  Irrep: 1 Size: 13 x 13

                 1                   2                   3                   4                   5

    1    12.48381585437480     2.44887249013409    -0.00000178513880    -0.00499461480755    -0.00914944975005
    2     2.44887249013409     6.88640477111256    -0.00000048983213     0.04654281745070     0.08505466224511
    3    -0.00000178513880    -0.00000048983213     7.06380811386301     0.00000433391176     0.00000764173852
    4    -0.00499461480755     0.04654281745070     0.00000433391176     7.27219611964733    -0.03930072166165
    5    -0.00914944975005     0.08505466224511     0.00000764173852    -0.03930072166165     7.21928133312411
    6     0.55413323531111     2.71663024542943    -0.00000540296286    -0.82183486056693     1.90357465088152
    7     0.54511408938646     2.68651512323270    -0.00000547453916     2.02717006879676     0.33997392410639
    8    -0.00000000000613     0.00000000000489    -0.00000000000209    -0.00000000055294    -0.00000000016082
    9     0.00000000023830    -0.00000000415634    -0.00000000017645    -0.00000001505728    -0.00000000226644
   10    -0.00000000023945     0.00000000488084     0.00000000020663     0.00000002138363     0.00000000374736
   11     0.00000000031015     0.00000000443464     0.00000000043760     0.00000007528842     0.00000001975955
   12    -0.00000000023514     0.00000000478508     0.00000000022866     0.00000002120067     0.00000000352190
   13     0.00000000018098    -0.00000001581378    -0.00000000057307    -0.00000011747408    -0.00000002674610

                 6                   7                   8                   9                  10

    1     0.55413323531111     0.54511408938646    -0.00000000000613     0.00000000023830    -0.00000000023945
    2     2.71663024542943     2.68651512323270     0.00000000000489    -0.00000000415634     0.00000000488084
    3    -0.00000540296286    -0.00000547453916    -0.00000000000209    -0.00000000017645     0.00000000020663
    4    -0.82183486056693     2.02717006879676    -0.00000000055294    -0.00000001505728     0.00000002138363
    5     1.90357465088152     0.33997392410639    -0.00000000016082    -0.00000000226644     0.00000000374736
    6     4.49731824803670     1.20645303777354     0.00000000005644     0.00000001402797    -0.00000001689166
    7     1.20645303777354     4.48060710397034     0.00000000014543     0.00000035728077    -0.00000042129053
    8     0.00000000005644     0.00000000014543     0.85805070035499     0.20420738506771    -0.00162484905813
    9     0.00000001402797     0.00000035728077     0.20420738506771     0.85805070035431    -0.02033081694613
   10    -0.00000001689166    -0.00000042129053    -0.00162484905813    -0.02033081694613     0.85763459861670
   11    -0.00000003182631    -0.00000045908514    -0.00239331934902    -0.02994625090595     0.00153853805576
   12    -0.00000001314153    -0.00000041598970    -0.00164588380052    -0.02059401277642     0.00106254435953
   13     0.00000007133668     0.00000135668529     0.02152578205055     0.23154149682259    -0.00558179711593

                11                  12                  13

    1     0.00000000031015    -0.00000000023514     0.00000000018098
    2     0.00000000443464     0.00000000478508    -0.00000001581378
    3     0.00000000043760     0.00000000022866    -0.00000000057307
    4     0.00000007528842     0.00000002120067    -0.00000011747408
    5     0.00000001975955     0.00000000352190    -0.00000002674610
    6    -0.00000003182631    -0.00000001314153     0.00000007133668
    7    -0.00000045908514    -0.00000041598970     0.00000135668529
    8    -0.00239331934902    -0.00164588380052     0.02152578205055
    9    -0.02994625090595    -0.02059401277642     0.23154149682259
   10     0.00153853805576     0.00106254435953    -0.00558179711593
   11     0.85885213876892     0.00155526249967     0.19167393062955
   12     0.00155526249967     0.85766536367698    -0.00565524924781
   13     0.19167393062955    -0.00565524924781     0.74747948875788



  ## H (Symmetry 0) ##
  Irrep: 1 Size: 13 x 13

                 1                   2                   3                   4                   5

    1   -32.71519250395254    -7.61144993060570     0.00001003450293    -0.00888301579238    -0.01668234905827
    2    -7.61144993060570    -9.32943415870316     0.00012667072962    -0.10491834921542    -0.19628160164566
    3     0.00001003450293     0.00012667072962    -7.45290007499630     0.00001189278569     0.00001019568992
    4    -0.00888301579238    -0.10491834921542     0.00001189278569    -7.59280752174177     0.02632654303671
    5    -0.01668234905827    -0.19628160164566     0.00001019568992     0.02632654303671    -7.56106421246118
    6    -1.74966020574359    -3.74006475838194     0.00006271391419     0.99305989962925    -2.41559856203915
    7    -1.72165683816135    -3.69863259835236     0.00006866499450    -2.54725587750367    -0.47354598659122
    8     0.00000000000566    -0.00000000005892    -0.00000000000203    -0.00000000034272    -0.00000000006410
    9    -0.00000000035292     0.00000000707618     0.00000000022782     0.00000003290355     0.00000000657572
   10     0.00000000062191    -0.00000001196318    -0.00000000037169    -0.00000005549865    -0.00000001260192
   11    -0.00000000005413     0.00000000071112     0.00000000001013     0.00000000384173     0.00000000010360
   12     0.00000000060757    -0.00000001170185    -0.00000000038934    -0.00000005501654    -0.00000001189154
   13    -0.00000000016829     0.00000000196343    -0.00000000117198     0.00000001231977     0.00000000111239

                 6                   7                   8                   9                  10

    1    -1.74966020574359    -1.72165683816135     0.00000000000566    -0.00000000035292     0.00000000062191
    2    -3.74006475838194    -3.69863259835236    -0.00000000005892     0.00000000707618    -0.00000001196318
    3     0.00006271391419     0.00006866499450    -0.00000000000203     0.00000000022782    -0.00000000037169
    4     0.99305989962925    -2.54725587750367    -0.00000000034272     0.00000003290355    -0.00000005549865
    5    -2.41559856203915    -0.47354598659122    -0.00000000006410     0.00000000657572    -0.00000001260192
    6    -5.07420068430357    -1.59639862763039    -0.00000000025446    -0.00000006985108     0.00000008178516
    7    -1.59639862763039    -5.04812571351692    -0.00000002384168    -0.00000160595470     0.00000175100189
    8    -0.00000000025446    -0.00000002384168   -26.77562057124650    -6.83005751637781     0.00164886556340
    9    -0.00000006985108    -0.00000160595470    -6.83005751637781    -3.88033670708833     0.02063049402047
   10     0.00000008178516     0.00000175100189     0.00164886556340     0.02063049402047    -1.32384974695078
   11     0.00000010779274     0.00000186266867    -0.01371230638126     0.00086798874524    -0.00156868628411
   12     0.00000006353672     0.00000172747882     0.00165220911363     0.02067157174205    -0.00107922820424
   13    -0.00000016959751    -0.00000348733734    -0.73677008058223    -0.92361892003130     0.00566193650190

                11                  12                  13

    1    -0.00000000005413     0.00000000060757    -0.00000000016829
    2     0.00000000071112    -0.00000001170185     0.00000000196343
    3     0.00000000001013    -0.00000000038934    -0.00000000117198
    4     0.00000000384173    -0.00000005501654     0.00000001231977
    5     0.00000000010360    -0.00000001189154     0.00000000111239
    6     0.00000010779274     0.00000006353672    -0.00000016959751
    7     0.00000186266867     0.00000172747882    -0.00000348733734
    8    -0.01371230638126     0.00165220911363    -0.73677008058223
    9     0.00086798874524     0.02067157174205    -0.92361892003130
   10    -0.00156868628411    -0.00107922820424     0.00566193650190
   11    -1.09155980077858    -0.00156813108981    -0.63805692704766
   12    -0.00156813108981    -1.32385926188898     0.00567542849173
   13    -0.63805692704766     0.00567542849173    -1.06511140805507





	Energy of system A =     -84.107414672054 

	

	Energy of system B =    -111.019085017743 

	

	 Embedded energy =    -173.486635970875 
 
	

	Energy of system  =    -173.486635970875 

	

	Error  =       0.000000000000 

	
*** PSI4 exiting successfully. Buy a developer a beer!
