    -----------------------------------------------------------------------
          PSI4: An Open-Source Ab Initio Electronic Structure Package
                              PSI 4.0 Driver

               Git: Rev {master} 556e8139d3cfa1f96ccffe2cdf22cc56a185d2b2

    J. M. Turney, A. C. Simmonett, R. M. Parrish, E. G. Hohenstein,
    F. A. Evangelista, J. T. Fermann, B. J. Mintz, L. A. Burns, J. J. Wilke,
    M. L. Abrams, N. J. Russ, M. L. Leininger, C. L. Janssen, E. T. Seidl,
    W. D. Allen, H. F. Schaefer, R. A. King, E. F. Valeev, C. D. Sherrill,
    and T. D. Crawford, WIREs Comput. Mol. Sci. 2, 556-565 (2012)
    (doi: 10.1002/wcms.93)

                         Additional Contributions by
    A. E. DePrince, M. Saitow, U. Bozkaya, A. Yu. Sokolov
    -----------------------------------------------------------------------

    Process ID:  52821
    PSI4DATADIR: /Users/kevinhannon/Programs/psi4cmake/psi4/lib
    Memory level set to 256.000 MB

  ==> Input File <==

--------------------------------------------------------------------------

# PYTHONPATH must include directory above plugin directory.
#     Define either externally or here, then import plugin.


# Path to plugin_prop.so
objdir = '/Users/kevinhannon/Programs/Quantum_Programs/Quantum-Programs/plugin_prop'
# Path to data directory
datadir = 'data/'

import sys
sys.path.append(objdir)
import prop

sys.path.insert(0, './..')

import plugin_fragment

#molecule {
##O         -1.485163346097    -0.114724564047     0.000000000000
##H         -1.868415346097     0.762298435953     0.000000000000
#H         -0.533833346097     0.040507435953     0.000000000000
#--
##H        8.200             7.000             7.000
#units angstrom
#symmetry c1
#}

#molecule {
#H        200000000.00               200000000.000             200000000.000
#H        200000001.00               200000000.000             200000000.000
#--
#H        -1003.000             -1003.000             -1003.000
#H        -1002.000             -1003.000             -1003.000
#units angstrom
#symmetry c1
#}
molecule {
O         -1.485163346097    -0.114724564047     0.000000000000
H         -1.868415346097     0.762298435953     0.000000000000
H         -0.533833346097     0.040507435953     0.000000000000
--
F        3.000             3.000             3.000
H        4.200             3.000             3.000
##F        7.000             7.000             7.000
symmetry c1
units angstrom
}


set {
  basis 6-31g
  r_convergence 1e-12
  d_convergence 1e-12
  LocalCut  0.02
  reference rhf
  SCF_type PK
  property_filepath 'data'
  property_tasks ['ORBITALS']
  property_orbitals [] #1,2,3,4,5,6,7,8,9,10,11,12,13,14,15,16,17,18,19,20,21,22,23,24,25,26,27,28,29,30,31,32,33]
  freeze_core false
}

set plugin_fragment {
  print 3
}

energy('scf')
energy('plugin_fragment')
#energy('ccsd')
#print cc2
#print scf
#cc2newH = energy('conv-mp2')
energy('prop')
#plugin_local.exampleFN()

--------------------------------------------------------------------------

*** tstart() called on Kevins-MacBook-Pro.local
*** at Fri Jan  9 17:28:53 2015

/Users/kevinhannon/Programs/PsiPlugins_psi4public/plugin_prop/plugin_prop.so loaded.
/Users/kevinhannon/Programs/Quantum_Programs/Quantum-Programs/plugin_fragment/plugin_fragment.so loaded.

*** tstart() called on Kevins-MacBook-Pro.local
*** at Fri Jan  9 17:28:53 2015

    There are an even number of electrons - assuming singlet.
    Specify the multiplicity with the MULTP option in the
    input if this is incorrect


         ---------------------------------------------------------
                                   SCF
            by Justin Turney, Rob Parrish, and Andy Simmonett
                              RHF Reference
                        1 Threads,    256 MiB Core
         ---------------------------------------------------------

  ==> Geometry <==

    Molecular point group: c1
    Full point group: C1

    Geometry (in Angstrom), charge = 0, multiplicity = 1:

       Center              X                  Y                   Z       
    ------------   -----------------  -----------------  -----------------
           O         -2.407176088730    -1.666479945112    -1.578741396290
           H         -2.790428088730    -0.789456945112    -1.578741396290
           H         -1.455846088730    -1.511247945112    -1.578741396290
           F          2.077987257367     1.448244618935     1.421258603710
           H          3.277987257367     1.448244618935     1.421258603710

  Running in c1 symmetry.

  Rotational constants: A =      9.04598  B =      0.04574  C =      0.04557 [cm^-1]
  Rotational constants: A = 271191.61763  B =   1371.33495  C =   1366.27736 [MHz]
  Nuclear repulsion =   21.639863718922200

  Charge       = 0
  Multiplicity = 1
  Electrons    = 20
  Nalpha       = 10
  Nbeta        = 10

  ==> Algorithm <==

  SCF Algorithm Type is PK.
  DIIS enabled.
  MOM disabled.
  Fractional occupation disabled.
  Guess Type is CORE.
  Energy threshold   = 1.00e-06
  Density threshold  = 1.00e-12
  Integral threshold = 0.00e+00

  ==> Primary Basis <==

  Basis Set: 6-31G
    Number of shells: 16
    Number of basis function: 24
    Number of Cartesian functions: 24
    Spherical Harmonics?: false
    Max angular momentum: 1

  ==> Pre-Iterations <==

   -------------------------------------------------------
    Irrep   Nso     Nmo     Nalpha   Nbeta   Ndocc  Nsocc
   -------------------------------------------------------
     A         24      24       0       0       0       0
   -------------------------------------------------------
    Total      24      24      10      10      10       0
   -------------------------------------------------------

  Starting with a DF guess...

 OEINTS: Overlap, kinetic, potential, dipole, and quadrupole integrals
         stored in file 35.

  ==> Integral Setup <==

  ==> DFJK: Density-Fitted J/K Matrices <==

    J tasked:                  Yes
    K tasked:                  Yes
    wK tasked:                  No
    OpenMP threads:              1
    Integrals threads:           1
    Memory (MB):               183
    Algorithm:                Core
    Integral Cache:           NONE
    Schwarz Cutoff:          1E-12
    Fitting Condition:       1E-12

   => Auxiliary Basis Set <=

  Basis Set: 
    Number of shells: 75
    Number of basis function: 237
    Number of Cartesian functions: 237
    Spherical Harmonics?: false
    Max angular momentum: 3

  Minimum eigenvalue in the overlap matrix is 6.8158211678E-02.
  Using Symmetric Orthogonalization.
  SCF Guess: Core (One-Electron) Hamiltonian.

  ==> Iterations <==

                           Total Energy        Delta E     RMS |[F,P]|

   @DF-RHF iter   1:  -163.15406474908724   -1.63154e+02   1.61724e-01 
   @DF-RHF iter   2:  -164.87742161158315   -1.72336e+00   1.52081e-01 DIIS
   @DF-RHF iter   3:  -173.35005570535731   -8.47263e+00   6.22345e-02 DIIS
   @DF-RHF iter   4:  -175.63110642955098   -2.28105e+00   3.40115e-02 DIIS
   @DF-RHF iter   5:  -175.85269341609586   -2.21587e-01   1.57207e-02 DIIS
   @DF-RHF iter   6:  -175.91423678435712   -6.15434e-02   3.88897e-03 DIIS
   @DF-RHF iter   7:  -175.91920601050816   -4.96923e-03   5.99196e-04 DIIS
   @DF-RHF iter   8:  -175.91941168805027   -2.05678e-04   1.78101e-04 DIIS
   @DF-RHF iter   9:  -175.91942540654446   -1.37185e-05   3.63392e-05 DIIS
   @DF-RHF iter  10:  -175.91942564592108   -2.39377e-07   1.44427e-05 DIIS
   @DF-RHF iter  11:  -175.91942572309858   -7.71775e-08   3.73150e-06 DIIS
   @DF-RHF iter  12:  -175.91942572715300   -4.05441e-09   4.49564e-07 DIIS
   @DF-RHF iter  13:  -175.91942572722320   -7.02016e-11   5.93486e-08 DIIS
   @DF-RHF iter  14:  -175.91942572722814   -4.94538e-12   2.00220e-08 DIIS
   @DF-RHF iter  15:  -175.91942572722877   -6.25278e-13   2.48744e-09 DIIS
   @DF-RHF iter  16:  -175.91942572722883   -5.68434e-14   5.86445e-10 DIIS
   @DF-RHF iter  17:  -175.91942572722883    0.00000e+00   1.30649e-10 DIIS
   @DF-RHF iter  18:  -175.91942572722871    1.13687e-13   2.19028e-11 DIIS
   @DF-RHF iter  19:  -175.91942572722871    0.00000e+00   4.93307e-12 DIIS
   @DF-RHF iter  20:  -175.91942572722883   -1.13687e-13   8.06002e-13 DIIS

  DF guess converged.

  ==> Integral Setup <==

 MINTS: Wrapper to libmints.
   by Justin Turney

   Calculation information:
      Number of atoms:                   5
      Number of AO shells:              16
      Number of SO shells:              16
      Number of primitives:             40
      Number of atomic orbitals:        24
      Number of basis functions:        24

      Number of irreps:                  1
      Integral cutoff                 0.00e+00
      Number of functions per irrep: [  24 ]

 OEINTS: Overlap, kinetic, potential, dipole, and quadrupole integrals
         stored in file 35.

      Computing two-electron integrals...done
      Computed 44063 non-zero two-electron integrals.
        Stored in file 33.

	Batch   1 pq = [       0,     300] index = [             0,45150]
  ==> DiskJK: Disk-Based J/K Matrices <==

    J tasked:                  Yes
    K tasked:                  Yes
    wK tasked:                  No
    Memory (MB):               183
    Schwarz Cutoff:          1E-12

   @RHF iter  21:  -175.91945879960008   -3.30724e-05   1.15911e-06 DIIS
   @RHF iter  22:  -175.91945879988589   -2.85809e-10   5.71899e-07 DIIS
   @RHF iter  23:  -175.91945879995006   -6.41762e-11   1.28861e-07 DIIS
   @RHF iter  24:  -175.91945879995467   -4.60432e-12   1.59628e-08 DIIS
   @RHF iter  25:  -175.91945879995473   -5.68434e-14   4.24315e-09 DIIS
   @RHF iter  26:  -175.91945879995484   -1.13687e-13   1.14243e-09 DIIS
   @RHF iter  27:  -175.91945879995473    1.13687e-13   2.06803e-10 DIIS
   @RHF iter  28:  -175.91945879995467    5.68434e-14   3.94374e-11 DIIS
   @RHF iter  29:  -175.91945879995484   -1.70530e-13   7.60778e-12 DIIS
   @RHF iter  30:  -175.91945879995473    1.13687e-13   2.41606e-12 DIIS
   @RHF iter  31:  -175.91945879995478   -5.68434e-14   9.38140e-13 DIIS

  ==> Post-Iterations <==

    Orbital Energies (a.u.)
    -----------------------

    Doubly Occupied:                                                      

       1A    -26.288221     2A    -20.555895     3A     -1.523778  
       4A     -1.349526     5A     -0.702840     6A     -0.646817  
       7A     -0.616964     8A     -0.616903     9A     -0.555473  
      10A     -0.496116  

    Virtual:                                                              

      11A      0.110197    12A      0.208704    13A      0.304569  
      14A      0.911295    15A      1.060481    16A      1.169521  
      17A      1.189191    18A      1.221105    19A      1.383425  
      20A      1.497391    21A      1.497538    22A      1.630763  
      23A      1.701994    24A      1.918102  

    Final Occupation by Irrep:
              A 
    DOCC [    10 ]

  Energy converged.

  @RHF Final Energy:  -175.91945879995478

   => Energetics <=

    Nuclear Repulsion Energy =             21.6398637189222001
    One-Electron Energy =                -288.4135787041458912
    Two-Electron Energy =                  90.8542561852689232
    DFT Exchange-Correlation Energy =       0.0000000000000000
    Empirical Dispersion Energy =           0.0000000000000000
    Total Energy =                       -175.9194587999547821



Properties will be evaluated at   0.000000,   0.000000,   0.000000 Bohr
  ==> Properties <==


Properties computed using the SCF density matrix

  Nuclear Dipole Moment: (a.u.)
     X:    -2.8796      Y:    -2.1734      Z:    -2.9760

  Electronic Dipole Moment: (a.u.)
     X:     4.4228      Y:     3.0852      Z:     2.9772

  Dipole Moment: (a.u.)
     X:     1.5432      Y:     0.9119      Z:     0.0012     Total:     1.7925

  Dipole Moment: (Debye)
     X:     3.9223      Y:     2.3178      Z:     0.0030     Total:     4.5560


  Saving occupied orbitals to File 180.

*** tstop() called on Kevins-MacBook-Pro.local at Fri Jan  9 17:28:53 2015
Module time:
	user time   =       0.43 seconds =       0.01 minutes
	system time =       0.02 seconds =       0.00 minutes
	total time  =          0 seconds =       0.00 minutes
Total time:
	user time   =       0.45 seconds =       0.01 minutes
	system time =       0.02 seconds =       0.00 minutes
	total time  =          0 seconds =       0.00 minutes
Reading options from the PLUGIN_FRAGMENT block
Calling plugin plugin_fragment.so.
   => Loading Basis Set <=

    Role: BASIS
    Keyword: BASIS
    Name: 6-31G
    atoms 1      entry O          line   112 file /Users/kevinhannon/Programs/psi4cmake/psi4/lib/basis/6-31g.gbs
    atoms 2-3, 5 entry H          line    21 file /Users/kevinhannon/Programs/psi4cmake/psi4/lib/basis/6-31g.gbs
    atoms 4      entry F          line   127 file /Users/kevinhannon/Programs/psi4cmake/psi4/lib/basis/6-31g.gbs



         ---------------------------------------------------------
                            ORBITAL LOCALIZATION
                        by Francesco A. Evangelista
         ---------------------------------------------------------

  ==> Details <==

    Number of fragments: 2
  Fragment contains 3 atoms
The number of basis functions on A are 13
The number of basis functions on B are 11number of electrons 10
 # lo #
 Irrep: 1
      1:  1.0000000
      2:  1.0000000
      3:  1.0000000
      4:  1.0000000
      5:  1.0000000
      6:  0.0000000
      7:  0.0000000
      8:  0.0000000
      9:  0.0000000
     10:  0.0000000


 # lv #
 Irrep: 1
      1:  1.0000000
      2:  1.0000000
      3:  1.0000000
      4:  1.0000000
      5:  1.0000000
      6:  1.0000000
      7:  1.0000000
      8:  1.0000000
      9:  0.0000000
     10:  0.0000000
     11:  0.0000000
     12:  0.0000000
     13:  0.0000000
     14:  0.0000000

  ## U (Symmetry 0) ##
  Irrep: 1 Size: 24 x 24

                 1                   2                   3                   4                   5

    1    -0.00000000002190     0.00000000005619     0.00000000000287    -0.00000000015166    -0.00000000078866
    2    -0.12037873995519     0.98323872608118    -0.09501961499095     0.09809143791962     0.00999545271037
    3     0.00000002323839    -0.00000004870196    -0.00000012422061     0.00000024145672     0.00000102130755
    4    -0.00086488424675     0.11311881089670     0.97530435515568    -0.18962044730260    -0.00537469772564
    5    -0.09673596782795     0.05069256492290    -0.14527574326262    -0.69687229988661    -0.69378409589526
    6    -0.00000280589843     0.00000126900776    -0.00000389332347    -0.00001943106538    -0.00000573050887
    7     0.00000415467464    -0.00000174071926     0.00000563924922     0.00002841216732    -0.00000253674481
    8    -0.00000110080578     0.00000046982403    -0.00000151279447    -0.00000760796120     0.00000043837596
    9     0.10932173789026    -0.03370114185747     0.13067338692621     0.67191694485726    -0.71997574626119
   10    -0.98193641396413    -0.12938407571934     0.03964986634025     0.13160080316359    -0.01302906701920
   11     0.00000000000000     0.00000000000000     0.00000000000000     0.00000000000000     0.00000000000000
   12     0.00000000000000     0.00000000000000     0.00000000000000     0.00000000000000     0.00000000000000
   13     0.00000000000000     0.00000000000000     0.00000000000000     0.00000000000000     0.00000000000000
   14     0.00000000000000     0.00000000000000     0.00000000000000     0.00000000000000     0.00000000000000
   15     0.00000000000000     0.00000000000000     0.00000000000000     0.00000000000000     0.00000000000000
   16     0.00000000000000     0.00000000000000     0.00000000000000     0.00000000000000     0.00000000000000
   17     0.00000000000000     0.00000000000000     0.00000000000000     0.00000000000000     0.00000000000000
   18     0.00000000000000     0.00000000000000     0.00000000000000     0.00000000000000     0.00000000000000
   19     0.00000000000000     0.00000000000000     0.00000000000000     0.00000000000000     0.00000000000000
   20     0.00000000000000     0.00000000000000     0.00000000000000     0.00000000000000     0.00000000000000
   21     0.00000000000000     0.00000000000000     0.00000000000000     0.00000000000000     0.00000000000000
   22     0.00000000000000     0.00000000000000     0.00000000000000     0.00000000000000     0.00000000000000
   23     0.00000000000000     0.00000000000000     0.00000000000000     0.00000000000000     0.00000000000000
   24     0.00000000000000     0.00000000000000     0.00000000000000     0.00000000000000     0.00000000000000

                 6                   7                   8                   9                  10

    1     0.00020326354732    -0.00172747106102    -0.00035480378339    -0.00498793723060    -0.99998598446384
    2    -0.00000001717046     0.00000000208097     0.00000000045461     0.00000000018040     0.00000000002670
    3    -0.16943040718531     0.92811593374542     0.33058965462326    -0.02453498094068    -0.00163267084049
    4     0.00000006681167     0.00000018671170     0.00000004846491     0.00000000147496    -0.00000000029134
    5     0.00002600650910     0.00000697445626    -0.00000345791425     0.00000245306128    -0.00000001711367
    6    -0.48467065252173    -0.35454273956131     0.72137132827868    -0.34498303600355     0.00197878263279
    7     0.82870178571218     0.01274048188346     0.35698264426500    -0.43087088193483     0.00216896457087
    8    -0.22280261100378     0.11284925902326    -0.49284597267014    -0.83349273731391     0.00409209894629
    9    -0.00002449663518    -0.00000255962038    -0.00000349805180     0.00000135771434    -0.00000000562675
   10    -0.00000015023616    -0.00000001000941    -0.00000003945564     0.00000000601674    -0.00000000002459
   11     0.00000000000000     0.00000000000000     0.00000000000000     0.00000000000000     0.00000000000000
   12     0.00000000000000     0.00000000000000     0.00000000000000     0.00000000000000     0.00000000000000
   13     0.00000000000000     0.00000000000000     0.00000000000000     0.00000000000000     0.00000000000000
   14     0.00000000000000     0.00000000000000     0.00000000000000     0.00000000000000     0.00000000000000
   15     0.00000000000000     0.00000000000000     0.00000000000000     0.00000000000000     0.00000000000000
   16     0.00000000000000     0.00000000000000     0.00000000000000     0.00000000000000     0.00000000000000
   17     0.00000000000000     0.00000000000000     0.00000000000000     0.00000000000000     0.00000000000000
   18     0.00000000000000     0.00000000000000     0.00000000000000     0.00000000000000     0.00000000000000
   19     0.00000000000000     0.00000000000000     0.00000000000000     0.00000000000000     0.00000000000000
   20     0.00000000000000     0.00000000000000     0.00000000000000     0.00000000000000     0.00000000000000
   21     0.00000000000000     0.00000000000000     0.00000000000000     0.00000000000000     0.00000000000000
   22     0.00000000000000     0.00000000000000     0.00000000000000     0.00000000000000     0.00000000000000
   23     0.00000000000000     0.00000000000000     0.00000000000000     0.00000000000000     0.00000000000000
   24     0.00000000000000     0.00000000000000     0.00000000000000     0.00000000000000     0.00000000000000

                11                  12                  13                  14                  15

    1     0.00000000000000     0.00000000000000     0.00000000000000     0.00000000000000     0.00000000000000
    2     0.00000000000000     0.00000000000000     0.00000000000000     0.00000000000000     0.00000000000000
    3     0.00000000000000     0.00000000000000     0.00000000000000     0.00000000000000     0.00000000000000
    4     0.00000000000000     0.00000000000000     0.00000000000000     0.00000000000000     0.00000000000000
    5     0.00000000000000     0.00000000000000     0.00000000000000     0.00000000000000     0.00000000000000
    6     0.00000000000000     0.00000000000000     0.00000000000000     0.00000000000000     0.00000000000000
    7     0.00000000000000     0.00000000000000     0.00000000000000     0.00000000000000     0.00000000000000
    8     0.00000000000000     0.00000000000000     0.00000000000000     0.00000000000000     0.00000000000000
    9     0.00000000000000     0.00000000000000     0.00000000000000     0.00000000000000     0.00000000000000
   10     0.00000000000000     0.00000000000000     0.00000000000000     0.00000000000000     0.00000000000000
   11     0.00000521304276    -0.00001136493857    -0.00001238504081    -0.00002377664744     0.00000480951709
   12     0.06336465762310    -0.13790688074402    -0.13873341140524    -0.18691911294024     0.03622296628105
   13     0.08693538312909    -0.18584540869466    -0.17533115744395    -0.15008526772243     0.02681703718521
   14    -0.00003993516457     0.00003249879850     0.00003149955326    -0.00003146646448     0.00000844773152
   15    -0.80338912693128     0.15232538389384     0.36517108050600    -0.25742163316980     0.10006045804845
   16     0.01149603894670     0.12572626652586    -0.13380151305861     0.21967078683943     0.95802175465586
   17     0.33011249191229     0.28535454774490    -0.22599224783477    -0.70012847423512     0.09188458530018
   18     0.37409539827499    -0.43493915067945     0.77253313141878    -0.16729507619257     0.19941796692980
   19    -0.26146143810741    -0.39595972237874    -0.19403278139936    -0.52718234785649     0.14781074093542
   20    -0.00013429370435    -0.00031862829477    -0.00015391919067    -0.00009588349282     0.00004454161834
   21     0.00003645307468     0.00008652891137     0.00004204372606     0.00002840695464    -0.00001257866918
   22    -0.00013069824665    -0.00046747826644    -0.00022619039828     0.00006334600769     0.00001933142428
   23    -0.15992862506133    -0.69285593422528    -0.33649744338556     0.17867775247982     0.00962524153633
   24     0.00000396433703     0.00002924438024     0.00001429463499    -0.00001308759154     0.00000075544670

                16                  17                  18                  19                  20

    1     0.00000000000000     0.00000000000000     0.00000000000000     0.00000000000000     0.00000000000000
    2     0.00000000000000     0.00000000000000     0.00000000000000     0.00000000000000     0.00000000000000
    3     0.00000000000000     0.00000000000000     0.00000000000000     0.00000000000000     0.00000000000000
    4     0.00000000000000     0.00000000000000     0.00000000000000     0.00000000000000     0.00000000000000
    5     0.00000000000000     0.00000000000000     0.00000000000000     0.00000000000000     0.00000000000000
    6     0.00000000000000     0.00000000000000     0.00000000000000     0.00000000000000     0.00000000000000
    7     0.00000000000000     0.00000000000000     0.00000000000000     0.00000000000000     0.00000000000000
    8     0.00000000000000     0.00000000000000     0.00000000000000     0.00000000000000     0.00000000000000
    9     0.00000000000000     0.00000000000000     0.00000000000000     0.00000000000000     0.00000000000000
   10     0.00000000000000     0.00000000000000     0.00000000000000     0.00000000000000     0.00000000000000
   11     0.00003437665950     0.00012754468787     0.00031599258901    -0.80438104189442    -0.56773426724587
   12     0.48692120794167     0.56294521622041     0.60619232097410     0.00020232113396     0.00020036216729
   13     0.67192891120386    -0.00700525721728    -0.67259229410464    -0.00010580813383    -0.00015322385834
   14    -0.00004737918981     0.00010197486132    -0.00000317684307     0.23508425764221    -0.12981138730254
   15     0.01016223549322     0.30299838259490    -0.17269531924703     0.00000280156678    -0.00005725632329
   16     0.00975523328927    -0.00121803139295     0.00056297009542    -0.00000029902061     0.00000050160250
   17    -0.37807199980764     0.27887264303767    -0.19797717982309     0.00003599707283    -0.00010395859051
   18    -0.04754021274317     0.05281685021703    -0.03561276170651     0.00000768957042    -0.00002043370219
   19     0.01433851676311    -0.60344782017453     0.27033454425169    -0.00020377647576     0.00037852601225
   20    -0.00004632704721    -0.00020491442254     0.00015138621335     0.38317389957404    -0.63659568152226
   21     0.00001260690010     0.00005822002257    -0.00004226146924    -0.10429654533803     0.24937323065211
   22    -0.00020353086586     0.00008202977296     0.00000737397077     0.36460013561798    -0.43786724784624
   23    -0.40720595524598     0.38278608043327    -0.19178728193933    -0.00029234044260     0.00036668580444
   24     0.00002940798937    -0.00004389610423     0.00003466724777     0.08410163608953     0.04071428520617

                21                  22                  23                  24

    1     0.00000000000000     0.00000000000000     0.00000000000000     0.00000000000000
    2     0.00000000000000     0.00000000000000     0.00000000000000     0.00000000000000
    3     0.00000000000000     0.00000000000000     0.00000000000000     0.00000000000000
    4     0.00000000000000     0.00000000000000     0.00000000000000     0.00000000000000
    5     0.00000000000000     0.00000000000000     0.00000000000000     0.00000000000000
    6     0.00000000000000     0.00000000000000     0.00000000000000     0.00000000000000
    7     0.00000000000000     0.00000000000000     0.00000000000000     0.00000000000000
    8     0.00000000000000     0.00000000000000     0.00000000000000     0.00000000000000
    9     0.00000000000000     0.00000000000000     0.00000000000000     0.00000000000000
   10     0.00000000000000     0.00000000000000     0.00000000000000     0.00000000000000
   11     0.09376483408129    -0.10836776955944    -0.07523503642226    -0.06673151235882
   12    -0.00004117498386     0.00004051927608     0.00002669109440     0.00002353370557
   13     0.00004013537306    -0.00003193114781    -0.00001911563957    -0.00001697003622
   14     0.90215633096685    -0.32904873324235    -0.00261031324871     0.07562043433968
   15    -0.00009331608374     0.00003378373678    -0.00000622026420    -0.00001656384607
   16     0.00000011784368    -0.00000007075975     0.00000005508367     0.00000001496611
   17    -0.00007640004597     0.00003137779878    -0.00001066218663    -0.00001975622890
   18    -0.00001345951568     0.00000607805387    -0.00000191933927    -0.00000374126880
   19     0.00010925177014    -0.00014872021079     0.00000230552575     0.00004397441568
   20     0.04788500848863     0.65085469775158    -0.14568230810557    -0.02820164805115
   21     0.08193426625567     0.09536585692992    -0.94148015493897     0.15729733876478
   22    -0.40903250345356    -0.66243046886058    -0.24170846403174     0.10389407324501
   23     0.00019779198175     0.00024402141415     0.00010046474018    -0.00010874874768
   24     0.03175302174545    -0.09199272175438    -0.16823098883224    -0.97647154372124



  ## S_ao (Symmetry 0) ##
  Irrep: 1 Size: 24 x 24

                 1                   2                   3                   4                   5

    1     1.00000000000000     0.00000000000000     0.00000000000000     0.00000000000000    -0.00000000000000
    2     0.00000000000000     1.00000000000000    -0.00000000000000    -0.00000000000000    -0.00000000000000
    3     0.00000000000000    -0.00000000000000     1.00000000000000     0.00000000000000    -0.00000000000000
    4     0.00000000000000    -0.00000000000000     0.00000000000000     1.00000000000000    -0.00000000000000
    5    -0.00000000000000    -0.00000000000000    -0.00000000000000    -0.00000000000000     1.00000000000000
    6    -0.00000000000000     0.00000000000000    -0.00000000000000    -0.00000000000000     0.00000000000000
    7     0.00000000000000    -0.00000000000000    -0.00000000000000     0.00000000000000     0.00000000000000
    8    -0.00000000000000    -0.00000000000000     0.00000000000000    -0.00000000000000    -0.00000000000000
    9    -0.00000000000000    -0.00000000000000     0.00000000000000     0.00000000000000    -0.00000000000000
   10     0.00000000000000     0.00000000000000     0.00000000000000     0.00000000000000     0.00000000000000
   11     0.00000000000000    -0.00000000000000     0.00000000000000    -0.00000000000000     0.00000000000000
   12     0.00000000000000    -0.00000000000000    -0.00000000000000     0.00000000000000     0.00000000000000
   13     0.00000000000000    -0.00000000000000    -0.00000000000000    -0.00000000000000     0.00000000000000
   14     0.00000000000000     0.00000000000000     0.00000000000000     0.00000000000000    -0.00000000000000
   15    -0.00000000000000     0.00000000000000     0.00000000000000    -0.00000000000000    -0.00000000000000
   16    -0.00000000000000    -0.00000000000000     0.00000000000000    -0.00000000000000    -0.00000000000000
   17    -0.00000000000000    -0.00000000000000     0.00000000000000    -0.00000000000000    -0.00000000000000
   18     0.00000000000000    -0.00000000000000    -0.00000000000000     0.00000000000000     0.00000000000000
   19    -0.00000000000000     0.00000000000000     0.00000000000000    -0.00000000000000    -0.00000000000000
   20     0.00000000000000    -0.00000000000000     0.00000000000000     0.00000000000000     0.00000000000000
   21    -0.00000000000000    -0.00000000000000     0.00000000000000     0.00000000000000    -0.00000000000000
   22    -0.00000000000000    -0.00000000000000    -0.00000000000000     0.00000000000000    -0.00000000000000
   23     0.00000000000000     0.00000000000000     0.00000000000000    -0.00000000000000     0.00000000000000
   24    -0.00000000000000    -0.00000000000000     0.00000000000000     0.00000000000000    -0.00000000000000

                 6                   7                   8                   9                  10

    1    -0.00000000000000     0.00000000000000    -0.00000000000000    -0.00000000000000     0.00000000000000
    2     0.00000000000000    -0.00000000000000    -0.00000000000000    -0.00000000000000     0.00000000000000
    3    -0.00000000000000    -0.00000000000000     0.00000000000000     0.00000000000000     0.00000000000000
    4    -0.00000000000000     0.00000000000000    -0.00000000000000     0.00000000000000     0.00000000000000
    5     0.00000000000000     0.00000000000000    -0.00000000000000    -0.00000000000000     0.00000000000000
    6     1.00000000000000    -0.00000000000000     0.00000000000000     0.00000000000000    -0.00000000000000
    7    -0.00000000000000     1.00000000000000     0.00000000000000    -0.00000000000000     0.00000000000000
    8     0.00000000000000     0.00000000000000     1.00000000000000     0.00000000000000    -0.00000000000000
    9     0.00000000000000    -0.00000000000000     0.00000000000000     1.00000000000000     0.00000000000000
   10    -0.00000000000000     0.00000000000000    -0.00000000000000     0.00000000000000     1.00000000000000
   11    -0.00000000000000     0.00000000000000    -0.00000000000000    -0.00000000000000     0.00000000000000
   12    -0.00000000000000     0.00000000000000    -0.00000000000000    -0.00000000000000     0.00000000000000
   13    -0.00000000000000    -0.00000000000000    -0.00000000000000     0.00000000000000    -0.00000000000000
   14    -0.00000000000000    -0.00000000000000     0.00000000000000     0.00000000000000     0.00000000000000
   15     0.00000000000000     0.00000000000000    -0.00000000000000    -0.00000000000000    -0.00000000000000
   16    -0.00000000000000     0.00000000000000    -0.00000000000000    -0.00000000000000    -0.00000000000000
   17     0.00000000000000     0.00000000000000     0.00000000000000    -0.00000000000000     0.00000000000000
   18    -0.00000000000000     0.00000000000000    -0.00000000000000     0.00000000000000    -0.00000000000000
   19    -0.00000000000000    -0.00000000000000    -0.00000000000000     0.00000000000000    -0.00000000000000
   20     0.00000000000000     0.00000000000000     0.00000000000000    -0.00000000000000    -0.00000000000000
   21    -0.00000000000000     0.00000000000000     0.00000000000000     0.00000000000000    -0.00000000000000
   22    -0.00000000000000     0.00000000000000     0.00000000000000    -0.00000000000000     0.00000000000000
   23    -0.00000000000000    -0.00000000000000    -0.00000000000000    -0.00000000000000    -0.00000000000000
   24     0.00000000000000    -0.00000000000000    -0.00000000000000     0.00000000000000    -0.00000000000000

                11                  12                  13                  14                  15

    1     0.00000000000000     0.00000000000000     0.00000000000000     0.00000000000000    -0.00000000000000
    2    -0.00000000000000    -0.00000000000000    -0.00000000000000     0.00000000000000     0.00000000000000
    3     0.00000000000000    -0.00000000000000    -0.00000000000000    -0.00000000000000    -0.00000000000000
    4    -0.00000000000000     0.00000000000000    -0.00000000000000     0.00000000000000    -0.00000000000000
    5     0.00000000000000     0.00000000000000     0.00000000000000    -0.00000000000000    -0.00000000000000
    6    -0.00000000000000    -0.00000000000000    -0.00000000000000    -0.00000000000000     0.00000000000000
    7     0.00000000000000     0.00000000000000    -0.00000000000000    -0.00000000000000     0.00000000000000
    8    -0.00000000000000    -0.00000000000000    -0.00000000000000     0.00000000000000    -0.00000000000000
    9    -0.00000000000000    -0.00000000000000     0.00000000000000     0.00000000000000    -0.00000000000000
   10     0.00000000000000     0.00000000000000    -0.00000000000000     0.00000000000000    -0.00000000000000
   11     1.00000000000000    -0.00000000000000     0.00000000000000     0.00000000000000    -0.00000000000000
   12    -0.00000000000000     1.00000000000000     0.00000000000000    -0.00000000000000     0.00000000000000
   13     0.00000000000000     0.00000000000000     1.00000000000000     0.00000000000000    -0.00000000000000
   14     0.00000000000000    -0.00000000000000     0.00000000000000     1.00000000000000     0.00000000000000
   15    -0.00000000000000     0.00000000000000    -0.00000000000000     0.00000000000000     1.00000000000000
   16    -0.00000000000000     0.00000000000000     0.00000000000000    -0.00000000000000     0.00000000000000
   17     0.00000000000000     0.00000000000000     0.00000000000000     0.00000000000000    -0.00000000000000
   18     0.00000000000000     0.00000000000000     0.00000000000000    -0.00000000000000     0.00000000000000
   19     0.00000000000000     0.00000000000000     0.00000000000000    -0.00000000000000     0.00000000000000
   20     0.00000000000000     0.00000000000000     0.00000000000000     0.00000000000000    -0.00000000000000
   21     0.00000000000000     0.00000000000000     0.00000000000000     0.00000000000000    -0.00000000000000
   22    -0.00000000000000     0.00000000000000     0.00000000000000     0.00000000000000    -0.00000000000000
   23    -0.00000000000000    -0.00000000000000    -0.00000000000000    -0.00000000000000     0.00000000000000
   24     0.00000000000000    -0.00000000000000    -0.00000000000000    -0.00000000000000     0.00000000000000

                16                  17                  18                  19                  20

    1    -0.00000000000000    -0.00000000000000     0.00000000000000    -0.00000000000000     0.00000000000000
    2    -0.00000000000000    -0.00000000000000    -0.00000000000000     0.00000000000000    -0.00000000000000
    3     0.00000000000000     0.00000000000000    -0.00000000000000     0.00000000000000     0.00000000000000
    4    -0.00000000000000    -0.00000000000000     0.00000000000000    -0.00000000000000     0.00000000000000
    5    -0.00000000000000    -0.00000000000000     0.00000000000000    -0.00000000000000     0.00000000000000
    6    -0.00000000000000     0.00000000000000    -0.00000000000000    -0.00000000000000     0.00000000000000
    7     0.00000000000000     0.00000000000000     0.00000000000000    -0.00000000000000     0.00000000000000
    8    -0.00000000000000     0.00000000000000    -0.00000000000000    -0.00000000000000     0.00000000000000
    9    -0.00000000000000    -0.00000000000000     0.00000000000000     0.00000000000000    -0.00000000000000
   10    -0.00000000000000     0.00000000000000    -0.00000000000000    -0.00000000000000    -0.00000000000000
   11    -0.00000000000000     0.00000000000000     0.00000000000000     0.00000000000000     0.00000000000000
   12     0.00000000000000     0.00000000000000     0.00000000000000     0.00000000000000     0.00000000000000
   13     0.00000000000000     0.00000000000000     0.00000000000000     0.00000000000000     0.00000000000000
   14    -0.00000000000000     0.00000000000000    -0.00000000000000    -0.00000000000000     0.00000000000000
   15     0.00000000000000    -0.00000000000000     0.00000000000000     0.00000000000000    -0.00000000000000
   16     1.00000000000000     0.00000000000000     0.00000000000000    -0.00000000000000     0.00000000000000
   17     0.00000000000000     1.00000000000000    -0.00000000000000    -0.00000000000000    -0.00000000000000
   18     0.00000000000000    -0.00000000000000     1.00000000000000     0.00000000000000    -0.00000000000000
   19    -0.00000000000000    -0.00000000000000     0.00000000000000     1.00000000000000    -0.00000000000000
   20     0.00000000000000    -0.00000000000000    -0.00000000000000    -0.00000000000000     1.00000000000000
   21     0.00000000000000    -0.00000000000000    -0.00000000000000    -0.00000000000000     0.00000000000000
   22    -0.00000000000000    -0.00000000000000     0.00000000000000    -0.00000000000000    -0.00000000000000
   23    -0.00000000000000     0.00000000000000    -0.00000000000000    -0.00000000000000     0.00000000000000
   24    -0.00000000000000    -0.00000000000000    -0.00000000000000    -0.00000000000000     0.00000000000000

                21                  22                  23                  24

    1    -0.00000000000000    -0.00000000000000     0.00000000000000    -0.00000000000000
    2    -0.00000000000000    -0.00000000000000     0.00000000000000    -0.00000000000000
    3     0.00000000000000    -0.00000000000000     0.00000000000000     0.00000000000000
    4     0.00000000000000     0.00000000000000    -0.00000000000000     0.00000000000000
    5    -0.00000000000000    -0.00000000000000     0.00000000000000    -0.00000000000000
    6    -0.00000000000000    -0.00000000000000    -0.00000000000000     0.00000000000000
    7     0.00000000000000     0.00000000000000    -0.00000000000000    -0.00000000000000
    8     0.00000000000000     0.00000000000000    -0.00000000000000    -0.00000000000000
    9     0.00000000000000     0.00000000000000    -0.00000000000000     0.00000000000000
   10    -0.00000000000000     0.00000000000000    -0.00000000000000    -0.00000000000000
   11     0.00000000000000    -0.00000000000000    -0.00000000000000     0.00000000000000
   12     0.00000000000000     0.00000000000000    -0.00000000000000    -0.00000000000000
   13     0.00000000000000     0.00000000000000    -0.00000000000000    -0.00000000000000
   14     0.00000000000000     0.00000000000000    -0.00000000000000    -0.00000000000000
   15    -0.00000000000000    -0.00000000000000     0.00000000000000     0.00000000000000
   16     0.00000000000000    -0.00000000000000    -0.00000000000000    -0.00000000000000
   17    -0.00000000000000    -0.00000000000000     0.00000000000000    -0.00000000000000
   18    -0.00000000000000     0.00000000000000    -0.00000000000000    -0.00000000000000
   19    -0.00000000000000    -0.00000000000000    -0.00000000000000    -0.00000000000000
   20     0.00000000000000    -0.00000000000000     0.00000000000000     0.00000000000000
   21     1.00000000000000     0.00000000000000    -0.00000000000000    -0.00000000000000
   22     0.00000000000000     1.00000000000000     0.00000000000000     0.00000000000000
   23    -0.00000000000000     0.00000000000000     1.00000000000000    -0.00000000000000
   24    -0.00000000000000     0.00000000000000    -0.00000000000000     1.00000000000000



  ## C (Symmetry 0) ##
  Irrep: 1 Size: 24 x 24

                 1                   2                   3                   4                   5

    1    -0.11151417691862     1.00055684507225     0.12267803152260     0.10890292735069    -0.04502028437456
    2    -0.02273454916495    -0.02539814602849    -0.48351415091731    -0.03133338652964     0.13143270053305
    3    -0.01374916095544     0.00866119785798    -0.08000751425638    -0.12039234605038    -0.49751053815017
    4     0.07661152009056    -0.03788528260246     0.00256578900141     0.51307264472697    -0.17697654060580
    5    -0.63012941122958    -0.08304908755919     0.02569419890589     0.08491004674421    -0.00883325831956
    6    -0.03293664912287    -0.05173931951153    -0.50863409213141    -0.11869026117568     0.21885277270149
    7    -0.00141784803857     0.00135024126507    -0.03715988738414    -0.02963423793618    -0.30455501072411
    8     0.05182701973107    -0.02615246297944     0.01335688502682     0.33784036277894    -0.16333888086732
    9    -0.50054200509291    -0.06594877748341     0.02053215466378     0.06738950930694    -0.00693424442001
   10     0.04118212308692    -0.03399924805189    -0.08036342867686     0.30649654655480     0.08057609482499
   11     0.02075777602935    -0.00602664613370     0.03636421319888     0.13847971199916     0.02888121776626
   12    -0.00938557680961    -0.00714310292391    -0.15350644700629    -0.05819397371022    -0.28523922827206
   13    -0.00294101861522     0.00641993944824     0.00031986374046    -0.03296525781419    -0.14510052762951
   14     0.00000000058723     0.00000000093266     0.00000000076694    -0.00000000115671    -0.00000026182051
   15    -0.00000000566332    -0.00000001270326    -0.00000000476845     0.00000007735079     0.00000100918937
   16    -0.00000000000348    -0.00000000615613    -0.00000000215004    -0.00000012258374    -0.00000057548383
   17    -0.00000000258477     0.00000000330037    -0.00000000814434    -0.00000010897631    -0.00000122565083
   18     0.00000000185415     0.00000000200931    -0.00000000328423    -0.00000008928087    -0.00000124075250
   19     0.00000000732812     0.00000001552102     0.00000000439185    -0.00000013348846     0.00000128177342
   20    -0.00000000493412     0.00000000613883    -0.00000000808036     0.00000002778695     0.00000375865153
   21     0.00000000286404    -0.00000000365651     0.00000000902408     0.00000012074629     0.00000135765216
   22    -0.00000000205438    -0.00000000222525     0.00000000363933     0.00000009893066     0.00000137345934
   23     0.00000001846218     0.00000000723807     0.00000002480346     0.00000003281664    -0.00000011310939
   24    -0.00000001388627    -0.00000001140044    -0.00000001262218     0.00000011038177    -0.00000506567480

                 6                   7                   8                   9                  10

    1     0.00000133087090     0.00000014544159     0.00000001026181     0.00000000200473    -0.00000000008129
    2     0.00000774895718     0.00000010277273    -0.00000033678843     0.00000008749675    -0.00000000302384
    3    -0.00000185143930    -0.00000033000830    -0.00000021323936     0.00000004929123    -0.00000000176022
    4    -0.00000098922793    -0.00000006814804     0.00000000827358     0.00000000414000     0.00000000014963
    5    -0.00000003095526     0.00000000037178    -0.00000000402511     0.00000000014356    -0.00000000000284
    6    -0.00004254338779    -0.00000263054748     0.00000067805857    -0.00000024054379     0.00000000839880
    7    -0.00003357549500    -0.00000167280593    -0.00000031177574    -0.00000018704828     0.00000000647238
    8    -0.00000040900937    -0.00000021156459     0.00000045025189     0.00000000477664    -0.00000000023422
    9     0.00000004500445     0.00000000073252     0.00000000282832     0.00000000035691     0.00000000001218
   10     0.00000300026795     0.00000004044497     0.00000006827507     0.00000002190124    -0.00000000092308
   11    -0.00001465904497    -0.00000030076788    -0.00000120251861    -0.00000010326964     0.00000000339192
   12    -0.00000641557526    -0.00000008065955     0.00000005993921    -0.00000005333572     0.00000000166595
   13     0.00007471651108     0.00000439193617     0.00000051933903     0.00000037859601    -0.00000001278011
   14    -0.05962073423499     0.20260538989942     0.10760339687972    -0.02523071177164    -0.99585525939928
   15     0.13587916924123    -0.43713097142831    -0.24351390367635     0.04864250593942    -0.02017940598001
   16    -0.24514185631073    -0.21561548820362     0.36491161765434    -0.17991721973370    -0.00000529360161
   17    -0.40103810085911     0.06066239032319    -0.40080069514318    -0.33918726716379     0.00164892755060
   18    -0.40566821539982    -0.04503333399332    -0.04203799307274     0.52134176679973    -0.00258594564039
   19     0.16633641171791    -0.46564914404729    -0.29231894326994     0.06554712944064     0.00552270273350
   20    -0.18140288145690    -0.17293596151929     0.26892135383296    -0.13426713850418     0.00180113787673
   21    -0.29434043265085     0.04454543645033    -0.29410945430002    -0.24888343033832     0.00120858869013
   22    -0.29778833308431    -0.03292031965933    -0.03082241849889     0.38259721583457    -0.00190264001487
   23    -0.10960133979942    -0.14726011125323     0.15935414447461    -0.08507298894079     0.00027832783694
   24    -0.09895541938477    -0.08015587045059     0.14815673667876    -0.07228350981741    -0.00060844443032

                11                  12                  13                  14                  15

    1     0.03870890442023    -0.06598609318830     0.01353572429128    -0.05428944488096     0.02217827913907
    2     0.01795206191922     1.30089163670615     0.28205592865399    -0.02067708650964    -0.13435333528375
    3    -0.11143695666636    -0.58391642986355     0.11322136549194    -0.31315137000847     0.16410896346484
    4     0.13326320530196    -0.05867987909244     0.83926124678698     0.60096720960155    -0.01009841287188
    5     0.01433410909370     0.12326859796472    -0.12998737215463     0.20512975115383     0.92180046384000
    6    -0.44886532724105    -1.72366868170394    -0.74033899008974     0.56845293189395     0.01818429902516
    7     0.70512783979184     0.33143503080093    -0.66307431891720     0.87159564573141    -0.34519024733619
    8    -0.98886765294927    -0.12146445173435    -0.98823731040503    -0.17232186833980    -0.06329161370381
    9    -0.01553225573144    -0.13320018281377     0.14011842688215    -0.22127806684775    -0.99474160516551
   10     1.30983967343055     0.12342787641713     0.00834603102541    -0.60266139770782     0.09942230894558
   11    -0.06834131847202     0.34534332053977     0.24279035864342     0.25096180680513    -0.08144077464346
   12    -0.23201549680026     0.49758273019920     0.78025334082913    -0.95993588289276     0.26082326646860
   13     0.00255304284167    -0.01263274364428    -0.00792269479122    -0.02650026239124     0.00835721386131
   14    -0.00000000011733     0.00000000003814     0.00000000033859    -0.00000000002190     0.00000000011279
   15     0.00000000023380    -0.00000000009443    -0.00000000068394     0.00000000017037    -0.00000000023900
   16    -0.00000000029616     0.00000000116445     0.00000000233639     0.00000000085231    -0.00000000000159
   17     0.00000000025834    -0.00000000102897     0.00000000155541     0.00000000201384     0.00000000025995
   18     0.00000000011513    -0.00000000010371    -0.00000000396069    -0.00000000271746    -0.00000000033985
   19     0.00000000027731    -0.00000000018296    -0.00000000090961     0.00000000012883    -0.00000000026243
   20    -0.00000000021735     0.00000000087461     0.00000000174256     0.00000000064562    -0.00000000000700
   21     0.00000000018957    -0.00000000075510     0.00000000114124     0.00000000147767     0.00000000019076
   22     0.00000000008446    -0.00000000007619    -0.00000000290664    -0.00000000199436    -0.00000000024934
   23    -0.00000000012600     0.00000000057088     0.00000000110007     0.00000000043955    -0.00000000002265
   24    -0.00000000012074     0.00000000046412     0.00000000093855     0.00000000033745     0.00000000000249

                16                  17                  18                  19                  20

    1    -0.00238493255617     0.08571512435453     0.02847233740769     0.00000096218259    -0.00000030504782
    2     0.74515309402345    -0.78858440441887     0.32160724961649     0.00002862512521    -0.00001274146248
    3     0.30752112402615    -0.75749976778227     0.06716283771579     0.00001820500169    -0.00000701013470
    4     0.05594019993549    -0.00433398060053    -0.02264979529172     0.00000005466443     0.00000046548974
    5     0.00670625604959     0.00109540719872    -0.00058336335015     0.00000001962773     0.00000001613257
    6    -1.77309599786125     0.44303927475010    -1.26692865565741    -0.00008201336959     0.00003521495499
    7     0.14385324142130     0.65802858877816    -0.97047681378620    -0.00005747125643     0.00002585451706
    8    -0.79251497833777    -0.26729433946049    -0.00144857896803     0.00000158568940    -0.00000035741947
    9    -0.00711384605763    -0.00092968788739     0.00086464956425     0.00000007517931     0.00000001956869
   10    -0.10950299363393    -0.23447761514286     0.10179600166182     0.00000722572130    -0.00000330828438
   11     1.86658315572336     0.84931436268095    -0.43816899440238    -0.00002784391957     0.00001240112903
   12    -0.12930940323439     0.45402219030063    -0.21472916785263    -0.00001466808149     0.00000694104119
   13     0.02840125745184    -0.51476752032451     2.08172562533279     0.00011968816060    -0.00005204483773
   14     0.00000009163681    -0.00000027350665     0.00000334054487    -0.05621357915970     0.00527392690234
   15    -0.00000020743466     0.00000059012198    -0.00000761329878     0.21667221312690    -0.35273907077310
   16     0.00000031303960     0.00000029029397     0.00001373527868    -0.12355514122396     0.55882331254639
   17    -0.00000034334543    -0.00000008117227     0.00002247013277    -0.26314798789120     0.49977502108293
   18    -0.00000003591428     0.00000006078231     0.00002272955794    -0.26639175099561     0.40705428904909
   19    -0.00000024915756     0.00000062867447    -0.00000931981562     0.27520740343729     0.60864853751690
   20     0.00000023072967     0.00000023287081     0.00001016398900     0.80699479130754    -0.12643208004278
   21    -0.00000025194859    -0.00000005960654     0.00001649187094     0.29148875496813    -0.55375317112275
   22    -0.00000002633275     0.00000004443319     0.00001668505669     0.29488414221937    -0.45104999541650
   23     0.00000013683582     0.00000019840906     0.00000614095436    -0.02428441509373    -0.15028074370201
   24     0.00000012707772     0.00000010789767     0.00000554446426    -1.08762286235553    -0.50283790686392

                21                  22                  23                  24

    1     0.00000005361213    -0.00000007754276    -0.00000006169907    -0.00000011323191
    2     0.00000244106065    -0.00000318719658    -0.00000248572563    -0.00000467505955
    3     0.00000145806094    -0.00000154675090    -0.00000116441275    -0.00000241684879
    4    -0.00000015353165    -0.00000001434379    -0.00000003831461     0.00000005772445
    5    -0.00000000302628     0.00000000290072     0.00000000263332     0.00000000429276
    6    -0.00000674236090     0.00000883566828     0.00000689524411     0.00001295352479
    7    -0.00000540532019     0.00000574752252     0.00000432738798     0.00000896779393
    8     0.00000038531323     0.00000026963094     0.00000030709708     0.00000010616872
    9     0.00000003104775    -0.00000000932261     0.00000000168433    -0.00000001040695
   10     0.00000075173167    -0.00000065874331    -0.00000047618602    -0.00000110203378
   11    -0.00000315656753     0.00000195276731     0.00000125975906     0.00000371981952
   12    -0.00000151735779     0.00000157938545     0.00000117737645     0.00000244955613
   13     0.00001083181353    -0.00001191424576    -0.00000901453447    -0.00001832471329
   14     0.04515158481064     0.02980901681867    -0.00161654261497    -0.09743792754583
   15    -0.46337940187398    -0.36418734059597     0.03545931119842     1.38372796366556
   16     0.00001660397158     0.70421214558666     0.30739027691842     0.44221696588857
   17     0.04483184303450    -0.22356846763399    -0.70770391084702     0.14287263367453
   18    -0.07889305126592    -0.58181885844067     0.55548749553479    -0.04845897094693
   19     0.59325676384701     0.30855666096887    -0.03892432090263    -1.51820937054394
   20    -0.32075764754458    -0.67643157147856    -0.33430496270592    -0.68529890548284
   21    -0.04967124312800     0.24771826754625     0.78415233599886    -0.15835213952778
   22     0.08741915333722     0.64470193245404    -0.61549208663156     0.05351301700263
   23     1.26520901337780    -0.17884546735189     0.12973787982610     0.44667944062600
   24    -0.99301735926442     0.22184913056130    -0.04457066554323     0.19399604628248



  ## DF (Symmetry 0) ##
  Irrep: 1 Size: 24 x 24

                 1                   2                   3                   4                   5

    1     1.04248598488553    -0.09152306363174     0.00967106980345     0.01770776364193    -0.00003022819216
    2    -0.09152306363174     0.25320419562571    -0.02283948574261    -0.04135691588619     0.00018999385519
    3     0.00967106980345    -0.02283948574261     0.26867631067437     0.02469091611625     0.00006083650267
    4     0.01770776364193    -0.04135691588619     0.02469091611625     0.30187543761457     0.00006539374358
    5    -0.00003022819216     0.00018999385519     0.00006083650267     0.00006539374358     0.41190816018902
    6    -0.13327198717744     0.28047804228153    -0.05389288546234    -0.10149674855114    -0.00002886963593
    7     0.00743429934590    -0.02113467484099     0.15809132192031     0.03843945322731     0.00000046646183
    8     0.01383749041468    -0.03902603566708     0.03858167979474     0.20723940967204    -0.00001374125644
    9     0.00000196978505     0.00010405816298     0.00000478907406     0.00000679772560     0.32719408038394
   10    -0.01871858571803     0.03977087484763    -0.07141831028772     0.14723181578948     0.00012155226813
   11     0.00989690710153    -0.01844456671987    -0.03428761785801     0.06785076294769    -0.00014202483606
   12    -0.01842826732568     0.03895098996561     0.16126447621780     0.01978062588558     0.00014146974498
   13     0.00973317392413    -0.01828889092287     0.07622825557470     0.00829810091076    -0.00018910028376
   14    -0.00000003612262    -0.00000051139548     0.00000015142306     0.00000009156238     0.00000000327372
   15     0.00000006518683     0.00000122730029    -0.00000056400070    -0.00000024532334    -0.00000000122696
   16    -0.00000034809187    -0.00000213099373     0.00000073952448     0.00000029864943     0.00000000114665
   17    -0.00000048379753    -0.00000314985352     0.00000141483308     0.00000054851875     0.00000001672005
   18    -0.00000049829092    -0.00000324713559     0.00000142888858     0.00000058001144     0.00000001474431
   19     0.00000009378694     0.00000151521106    -0.00000071068110    -0.00000043030632    -0.00000003258667
   20    -0.00000042457388    -0.00000102877696    -0.00000154358584    -0.00000045866435    -0.00000002400070
   21    -0.00000043961063    -0.00000202865985    -0.00000011007733     0.00000010673070     0.00000000726694
   22    -0.00000045326557    -0.00000209130876    -0.00000010786760     0.00000010577744     0.00000000722579
   23    -0.00000014892609    -0.00000095403441     0.00000026348950     0.00000015748133    -0.00000000512742
   24     0.00000008669289    -0.00000149380505     0.00000268254686     0.00000105675351     0.00000006591823

                 6                   7                   8                   9                  10

    1    -0.13327198717744     0.00743429934590     0.01383749041468     0.00000196978505    -0.01871858571803
    2     0.28047804228153    -0.02113467484099    -0.03902603566708     0.00010405816298     0.03977087484763
    3    -0.05389288546234     0.15809132192031     0.03858167979474     0.00000478907406    -0.07141831028772
    4    -0.10149674855114     0.03843945322731     0.20723940967204     0.00000679772560     0.14723181578948
    5    -0.00002886963593     0.00000046646183    -0.00001374125644     0.32719408038394     0.00012155226813
    6     0.32445433575176    -0.04425778748161    -0.08299319265861    -0.00006108966427     0.02253442288365
    7    -0.04425778748161     0.09501663442040     0.03912889761675    -0.00002750468667    -0.03074064633229
    8    -0.08299319265861     0.03912889761675     0.14436409839773    -0.00004310378835     0.09233580102859
    9    -0.00006108966427    -0.00002750468667    -0.00004310378835     0.25990253919943     0.00007470957438
   10     0.02253442288365    -0.03074064633229     0.09233580102859     0.00007470957438     0.10974283691502
   11    -0.02898341355617    -0.01428851869377     0.04378574827935    -0.00011424282374     0.04290808706344
   12     0.02323898326519     0.09430351519708     0.02458039843501     0.00007339142246    -0.02862706854260
   13    -0.02824099052586     0.04516894280981     0.01224751403062    -0.00016006633251    -0.02216046717666
   14     0.00000201655088     0.00000170734680     0.00000007247365    -0.00000000085370    -0.00000018449067
   15    -0.00000459290095    -0.00000407376030    -0.00000021123257     0.00000000691259     0.00000048005837
   16     0.00001117707669     0.00000869029537     0.00000036204191    -0.00000001412927    -0.00000080679765
   17     0.00001646053525     0.00001392880964     0.00000013216328    -0.00000001719468    -0.00000136728628
   18     0.00001696359115     0.00001399206206     0.00000033151287    -0.00000001676365    -0.00000133745174
   19    -0.00000577244703    -0.00000511354081    -0.00000035525232    -0.00000001614383     0.00000052348069
   20     0.00000921031418     0.00000517603873    -0.00000037384739    -0.00000002986980    -0.00000022422178
   21     0.00001254381379     0.00000952896476    -0.00000020324851    -0.00000001641905    -0.00000076091115
   22     0.00001292975122     0.00000957013223    -0.00000007420309    -0.00000001498380    -0.00000074781106
   23     0.00000513645680     0.00000392502607     0.00000017798687    -0.00000001083342    -0.00000032630766
   24     0.00000342432286     0.00000496386619     0.00000098791750     0.00000004588962    -0.00000066511236

                11                  12                  13                  14                  15

    1     0.00989690710153    -0.01842826732568     0.00973317392413    -0.00000003612262     0.00000006518683
    2    -0.01844456671987     0.03895098996561    -0.01828889092287    -0.00000051139548     0.00000122730029
    3    -0.03428761785801     0.16126447621780     0.07622825557470     0.00000015142306    -0.00000056400070
    4     0.06785076294769     0.01978062588558     0.00829810091076     0.00000009156238    -0.00000024532334
    5    -0.00014202483606     0.00014146974498    -0.00018910028376     0.00000000327372    -0.00000000122696
    6    -0.02898341355617     0.02323898326519    -0.02824099052586     0.00000201655088    -0.00000459290095
    7    -0.01428851869377     0.09430351519708     0.04516894280981     0.00000170734680    -0.00000407376030
    8     0.04378574827935     0.02458039843501     0.01224751403062     0.00000007247365    -0.00000021123257
    9    -0.00011424282374     0.00007339142246    -0.00016006633251    -0.00000000085370     0.00000000691259
   10     0.04290808706344    -0.02862706854260    -0.02216046717666    -0.00000018449067     0.00000048005837
   11     0.02180031732234    -0.02203065680672    -0.00884380855753     0.00000067519103    -0.00000153300190
   12    -0.02203065680672     0.10845129820653     0.04323938511135     0.00000044691445    -0.00000114519414
   13    -0.00884380855753     0.04323938511135     0.02219084446920    -0.00000346773284     0.00000797572339
   14     0.00000067519103     0.00000044691445    -0.00000346773284     1.04854635347684    -0.10400074743449
   15    -0.00000153300190    -0.00000114519414     0.00000797572339    -0.10400074743449     0.27161895791003
   16     0.00000320452548     0.00000179324425    -0.00001905421290     0.01474111820462    -0.03667003408853
   17     0.00000632673489     0.00000291926333    -0.00002985286862    -0.00001095999497     0.00005821524325
   18     0.00000590866603     0.00000293547645    -0.00003014933484    -0.00003978647269     0.00021199356860
   19    -0.00000193475994    -0.00000140929055     0.00001007440167    -0.14286824994476     0.30041197488900
   20     0.00000251366458     0.00000012854689    -0.00001477075576     0.00630844908305    -0.02110673260111
   21     0.00000473707130     0.00000148474951    -0.00002224443921     0.00000268858456     0.00002211561487
   22     0.00000442621152     0.00000149283693    -0.00002246798045     0.00000948192222     0.00008182894293
   23     0.00000147062143     0.00000075544407    -0.00000876990923    -0.00428485482949     0.00653068683671
   24     0.00000117230589     0.00000209471092    -0.00000696470112     0.00803163850149    -0.01798936498031

                16                  17                  18                  19                  20

    1    -0.00000034809187    -0.00000048379753    -0.00000049829092     0.00000009378694    -0.00000042457388
    2    -0.00000213099373    -0.00000314985352    -0.00000324713559     0.00000151521106    -0.00000102877696
    3     0.00000073952448     0.00000141483308     0.00000142888858    -0.00000071068110    -0.00000154358584
    4     0.00000029864943     0.00000054851875     0.00000058001144    -0.00000043030632    -0.00000045866435
    5     0.00000000114665     0.00000001672005     0.00000001474431    -0.00000003258667    -0.00000002400070
    6     0.00001117707669     0.00001646053525     0.00001696359115    -0.00000577244703     0.00000921031418
    7     0.00000869029537     0.00001392880964     0.00001399206206    -0.00000511354081     0.00000517603873
    8     0.00000036204191     0.00000013216328     0.00000033151287    -0.00000035525232    -0.00000037384739
    9    -0.00000001412927    -0.00000001719468    -0.00000001676365    -0.00000001614383    -0.00000002986980
   10    -0.00000080679765    -0.00000136728628    -0.00000133745174     0.00000052348069    -0.00000022422178
   11     0.00000320452548     0.00000632673489     0.00000590866603    -0.00000193475994     0.00000251366458
   12     0.00000179324425     0.00000291926333     0.00000293547645    -0.00000140929055     0.00000012854689
   13    -0.00001905421290    -0.00002985286862    -0.00003014933484     0.00001007440167    -0.00001477075576
   14     0.01474111820462    -0.00001095999497    -0.00003978647269    -0.14286824994476     0.00630844908305
   15    -0.03667003408853     0.00005821524325     0.00021199356860     0.30041197488900    -0.02110673260111
   16     0.27211526315294     0.00000026491825     0.00001764408470    -0.05883851420108     0.20404659784498
   17     0.00000026491825     0.44020340233728    -0.00003131533006    -0.00001663829308     0.00001956643654
   18     0.00001764408470    -0.00003131533006     0.44016581994408    -0.00006098529722     0.00006862723380
   19    -0.05883851420108    -0.00001663829308    -0.00006098529722     0.33427421823467    -0.03704810624882
   20     0.20404659784498     0.00001956643654     0.00006862723380    -0.03704810624882     0.15316345532870
   21     0.00000492570947     0.32304331795335     0.00000584707232    -0.00003523060449     0.00001742495547
   22     0.00001523968089     0.00000584765710     0.32305031461272    -0.00012610578448     0.00005030202682
   23     0.13207570948488     0.00000804450838     0.00004164317244    -0.00181613703909     0.09962530815063
   24     0.10861012813012    -0.00004223340979    -0.00015829670689    -0.02718573445773     0.08135934505996

                21                  22                  23                  24

    1    -0.00000043961063    -0.00000045326557    -0.00000014892609     0.00000008669289
    2    -0.00000202865985    -0.00000209130876    -0.00000095403441    -0.00000149380505
    3    -0.00000011007733    -0.00000010786760     0.00000026348950     0.00000268254686
    4     0.00000010673070     0.00000010577744     0.00000015748133     0.00000105675351
    5     0.00000000726694     0.00000000722579    -0.00000000512742     0.00000006591823
    6     0.00001254381379     0.00001292975122     0.00000513645680     0.00000342432286
    7     0.00000952896476     0.00000957013223     0.00000392502607     0.00000496386619
    8    -0.00000020324851    -0.00000007420309     0.00000017798687     0.00000098791750
    9    -0.00000001641905    -0.00000001498380    -0.00000001083342     0.00000004588962
   10    -0.00000076091115    -0.00000074781106    -0.00000032630766    -0.00000066511236
   11     0.00000473707130     0.00000442621152     0.00000147062143     0.00000117230589
   12     0.00000148474951     0.00000149283693     0.00000075544407     0.00000209471092
   13    -0.00002224443921    -0.00002246798045    -0.00000876990923    -0.00000696470112
   14     0.00000268858456     0.00000948192222    -0.00428485482949     0.00803163850149
   15     0.00002211561487     0.00008182894293     0.00653068683671    -0.01798936498031
   16     0.00000492570947     0.00001523968089     0.13207570948488     0.10861012813012
   17     0.32304331795335     0.00000584765710     0.00000804450838    -0.00004223340979
   18     0.00000584707232     0.32305031461272     0.00004164317244    -0.00015829670689
   19    -0.00003523060449    -0.00012610578448    -0.00181613703909    -0.02718573445773
   20     0.00001742495547     0.00005030202682     0.09962530815063     0.08135934505996
   21     0.23706537989574     0.00002545445389     0.00000637307675    -0.00002886173955
   22     0.00002545445389     0.23709590985501     0.00002495181837    -0.00011433463841
   23     0.00000637307675     0.00002495181837     0.06632922832709     0.05240800385158
   24    -0.00002886173955    -0.00011433463841     0.05240800385158     0.04339283323843



   => Loading Basis Set <=

    Role: BASIS
    Keyword: BASIS
    Name: 6-31G
    atoms 1      entry O          line   112 file /Users/kevinhannon/Programs/psi4cmake/psi4/lib/basis/6-31g.gbs
    atoms 2-3, 5 entry H          line    21 file /Users/kevinhannon/Programs/psi4cmake/psi4/lib/basis/6-31g.gbs
    atoms 4      entry F          line   127 file /Users/kevinhannon/Programs/psi4cmake/psi4/lib/basis/6-31g.gbs

   => Loading Basis Set <=

    Role: BASIS
    Keyword: BASIS
    Name: 6-31G
    atoms 1      entry O          line   112 file /Users/kevinhannon/Programs/psi4cmake/psi4/lib/basis/6-31g.gbs
    atoms 2-3, 5 entry H          line    21 file /Users/kevinhannon/Programs/psi4cmake/psi4/lib/basis/6-31g.gbs
    atoms 4      entry F          line   127 file /Users/kevinhannon/Programs/psi4cmake/psi4/lib/basis/6-31g.gbs

   => Loading Basis Set <=

    Role: BASIS
    Keyword: BASIS
    Name: 6-31G
    atoms 1      entry O          line   112 file /Users/kevinhannon/Programs/psi4cmake/psi4/lib/basis/6-31g.gbs
    atoms 2-3, 5 entry H          line    21 file /Users/kevinhannon/Programs/psi4cmake/psi4/lib/basis/6-31g.gbs
    atoms 4      entry F          line   127 file /Users/kevinhannon/Programs/psi4cmake/psi4/lib/basis/6-31g.gbs

   => Loading Basis Set <=

    Role: BASIS
    Keyword: BASIS
    Name: 6-31G
    atoms 1      entry O          line   112 file /Users/kevinhannon/Programs/psi4cmake/psi4/lib/basis/6-31g.gbs
    atoms 2-3, 5 entry H          line    21 file /Users/kevinhannon/Programs/psi4cmake/psi4/lib/basis/6-31g.gbs
    atoms 4      entry F          line   127 file /Users/kevinhannon/Programs/psi4cmake/psi4/lib/basis/6-31g.gbs

 MINTS: Wrapper to libmints.
   by Justin Turney

   Calculation information:
      Number of atoms:                   5
      Number of AO shells:              16
      Number of SO shells:              16
      Number of primitives:             40
      Number of atomic orbitals:        24
      Number of basis functions:        24

      Number of irreps:                  1
      Integral cutoff                 1.00e-12
      Number of functions per irrep: [  24 ]

 OEINTS: Overlap, kinetic, potential, dipole, and quadrupole integrals
         stored in file 35.

      Computing two-electron integrals...done
      Computed 15853 non-zero two-electron integrals.
        Stored in file 33.

	Batch   1 pq = [       0,     300] index = [             0,45150]
   => Loading Basis Set <=

    Role: BASIS
    Keyword: BASIS
    Name: 6-31G
    atoms 1      entry O          line   112 file /Users/kevinhannon/Programs/psi4cmake/psi4/lib/basis/6-31g.gbs
    atoms 2-3, 5 entry H          line    21 file /Users/kevinhannon/Programs/psi4cmake/psi4/lib/basis/6-31g.gbs
    atoms 4      entry F          line   127 file /Users/kevinhannon/Programs/psi4cmake/psi4/lib/basis/6-31g.gbs

 MINTS: Wrapper to libmints.
   by Justin Turney

   Calculation information:
      Number of atoms:                   5
      Number of AO shells:              16
      Number of SO shells:              16
      Number of primitives:             40
      Number of atomic orbitals:        24
      Number of basis functions:        24

      Number of irreps:                  1
      Integral cutoff                 1.00e-12
      Number of functions per irrep: [  24 ]

 OEINTS: Overlap, kinetic, potential, dipole, and quadrupole integrals
         stored in file 35.

      Computing two-electron integrals...done
      Computed 15853 non-zero two-electron integrals.
        Stored in file 33.

	Batch   1 pq = [       0,     300] index = [             0,45150]
   => Loading Basis Set <=

    Role: BASIS
    Keyword: BASIS
    Name: 6-31G
    atoms 1      entry O          line   112 file /Users/kevinhannon/Programs/psi4cmake/psi4/lib/basis/6-31g.gbs
    atoms 2-3, 5 entry H          line    21 file /Users/kevinhannon/Programs/psi4cmake/psi4/lib/basis/6-31g.gbs
    atoms 4      entry F          line   127 file /Users/kevinhannon/Programs/psi4cmake/psi4/lib/basis/6-31g.gbs

 MINTS: Wrapper to libmints.
   by Justin Turney

   Calculation information:
      Number of atoms:                   5
      Number of AO shells:              16
      Number of SO shells:              16
      Number of primitives:             40
      Number of atomic orbitals:        24
      Number of basis functions:        24

      Number of irreps:                  1
      Integral cutoff                 1.00e-12
      Number of functions per irrep: [  24 ]

 OEINTS: Overlap, kinetic, potential, dipole, and quadrupole integrals
         stored in file 35.

      Computing two-electron integrals...done
      Computed 15853 non-zero two-electron integrals.
        Stored in file 33.

	Batch   1 pq = [       0,     300] index = [             0,45150]
  ==> DiskJK: Disk-Based J/K Matrices <==

    J tasked:                  Yes
    K tasked:                  Yes
    wK tasked:                  No
    Memory (MB):              7629
    Schwarz Cutoff:          1E-12

  ==> DiskJK: Disk-Based J/K Matrices <==

    J tasked:                  Yes
    K tasked:                  Yes
    wK tasked:                  No
    Memory (MB):              7629
    Schwarz Cutoff:          1E-12

  ==> DiskJK: Disk-Based J/K Matrices <==

    J tasked:                  Yes
    K tasked:                  Yes
    wK tasked:                  No
    Memory (MB):              7629
    Schwarz Cutoff:          1E-12

  ## C (Symmetry 0) ##
  Irrep: 1 Size: 24 x 24

                 1                   2                   3                   4                   5

    1    -0.11151417691862     1.00055684507225     0.12267803152260     0.10890292735069    -0.04502028437456
    2    -0.02273454916495    -0.02539814602849    -0.48351415091731    -0.03133338652964     0.13143270053305
    3    -0.01374916095544     0.00866119785798    -0.08000751425638    -0.12039234605038    -0.49751053815017
    4     0.07661152009056    -0.03788528260246     0.00256578900141     0.51307264472697    -0.17697654060580
    5    -0.63012941122958    -0.08304908755919     0.02569419890589     0.08491004674421    -0.00883325831956
    6    -0.03293664912287    -0.05173931951153    -0.50863409213141    -0.11869026117568     0.21885277270149
    7    -0.00141784803857     0.00135024126507    -0.03715988738414    -0.02963423793618    -0.30455501072411
    8     0.05182701973107    -0.02615246297944     0.01335688502682     0.33784036277894    -0.16333888086732
    9    -0.50054200509291    -0.06594877748341     0.02053215466378     0.06738950930694    -0.00693424442001
   10     0.04118212308692    -0.03399924805189    -0.08036342867686     0.30649654655480     0.08057609482499
   11     0.02075777602935    -0.00602664613370     0.03636421319888     0.13847971199916     0.02888121776626
   12    -0.00938557680961    -0.00714310292391    -0.15350644700629    -0.05819397371022    -0.28523922827206
   13    -0.00294101861522     0.00641993944824     0.00031986374046    -0.03296525781419    -0.14510052762951
   14     0.00000000058723     0.00000000093266     0.00000000076694    -0.00000000115671    -0.00000026182051
   15    -0.00000000566332    -0.00000001270326    -0.00000000476845     0.00000007735079     0.00000100918937
   16    -0.00000000000348    -0.00000000615613    -0.00000000215004    -0.00000012258374    -0.00000057548383
   17    -0.00000000258477     0.00000000330037    -0.00000000814434    -0.00000010897631    -0.00000122565083
   18     0.00000000185415     0.00000000200931    -0.00000000328423    -0.00000008928087    -0.00000124075250
   19     0.00000000732812     0.00000001552102     0.00000000439185    -0.00000013348846     0.00000128177342
   20    -0.00000000493412     0.00000000613883    -0.00000000808036     0.00000002778695     0.00000375865153
   21     0.00000000286404    -0.00000000365651     0.00000000902408     0.00000012074629     0.00000135765216
   22    -0.00000000205438    -0.00000000222525     0.00000000363933     0.00000009893066     0.00000137345934
   23     0.00000001846218     0.00000000723807     0.00000002480346     0.00000003281664    -0.00000011310939
   24    -0.00000001388627    -0.00000001140044    -0.00000001262218     0.00000011038177    -0.00000506567480

                 6                   7                   8                   9                  10

    1     0.00000133087090     0.00000014544159     0.00000001026181     0.00000000200473    -0.00000000008129
    2     0.00000774895718     0.00000010277273    -0.00000033678843     0.00000008749675    -0.00000000302384
    3    -0.00000185143930    -0.00000033000830    -0.00000021323936     0.00000004929123    -0.00000000176022
    4    -0.00000098922793    -0.00000006814804     0.00000000827358     0.00000000414000     0.00000000014963
    5    -0.00000003095526     0.00000000037178    -0.00000000402511     0.00000000014356    -0.00000000000284
    6    -0.00004254338779    -0.00000263054748     0.00000067805857    -0.00000024054379     0.00000000839880
    7    -0.00003357549500    -0.00000167280593    -0.00000031177574    -0.00000018704828     0.00000000647238
    8    -0.00000040900937    -0.00000021156459     0.00000045025189     0.00000000477664    -0.00000000023422
    9     0.00000004500445     0.00000000073252     0.00000000282832     0.00000000035691     0.00000000001218
   10     0.00000300026795     0.00000004044497     0.00000006827507     0.00000002190124    -0.00000000092308
   11    -0.00001465904497    -0.00000030076788    -0.00000120251861    -0.00000010326964     0.00000000339192
   12    -0.00000641557526    -0.00000008065955     0.00000005993921    -0.00000005333572     0.00000000166595
   13     0.00007471651108     0.00000439193617     0.00000051933903     0.00000037859601    -0.00000001278011
   14    -0.05962073423499     0.20260538989942     0.10760339687972    -0.02523071177164    -0.99585525939928
   15     0.13587916924123    -0.43713097142831    -0.24351390367635     0.04864250593942    -0.02017940598001
   16    -0.24514185631073    -0.21561548820362     0.36491161765434    -0.17991721973370    -0.00000529360161
   17    -0.40103810085911     0.06066239032319    -0.40080069514318    -0.33918726716379     0.00164892755060
   18    -0.40566821539982    -0.04503333399332    -0.04203799307274     0.52134176679973    -0.00258594564039
   19     0.16633641171791    -0.46564914404729    -0.29231894326994     0.06554712944064     0.00552270273350
   20    -0.18140288145690    -0.17293596151929     0.26892135383296    -0.13426713850418     0.00180113787673
   21    -0.29434043265085     0.04454543645033    -0.29410945430002    -0.24888343033832     0.00120858869013
   22    -0.29778833308431    -0.03292031965933    -0.03082241849889     0.38259721583457    -0.00190264001487
   23    -0.10960133979942    -0.14726011125323     0.15935414447461    -0.08507298894079     0.00027832783694
   24    -0.09895541938477    -0.08015587045059     0.14815673667876    -0.07228350981741    -0.00060844443032

                11                  12                  13                  14                  15

    1     0.03870890442023    -0.06598609318830     0.01353572429128    -0.05428944488096     0.02217827913907
    2     0.01795206191922     1.30089163670615     0.28205592865399    -0.02067708650964    -0.13435333528375
    3    -0.11143695666636    -0.58391642986355     0.11322136549194    -0.31315137000847     0.16410896346484
    4     0.13326320530196    -0.05867987909244     0.83926124678698     0.60096720960155    -0.01009841287188
    5     0.01433410909370     0.12326859796472    -0.12998737215463     0.20512975115383     0.92180046384000
    6    -0.44886532724105    -1.72366868170394    -0.74033899008974     0.56845293189395     0.01818429902516
    7     0.70512783979184     0.33143503080093    -0.66307431891720     0.87159564573141    -0.34519024733619
    8    -0.98886765294927    -0.12146445173435    -0.98823731040503    -0.17232186833980    -0.06329161370381
    9    -0.01553225573144    -0.13320018281377     0.14011842688215    -0.22127806684775    -0.99474160516551
   10     1.30983967343055     0.12342787641713     0.00834603102541    -0.60266139770782     0.09942230894558
   11    -0.06834131847202     0.34534332053977     0.24279035864342     0.25096180680513    -0.08144077464346
   12    -0.23201549680026     0.49758273019920     0.78025334082913    -0.95993588289276     0.26082326646860
   13     0.00255304284167    -0.01263274364428    -0.00792269479122    -0.02650026239124     0.00835721386131
   14    -0.00000000011733     0.00000000003814     0.00000000033859    -0.00000000002190     0.00000000011279
[...]
   15    -0.00000000319956     0.00000003602172     0.00000011232335     0.20913929789988     0.85604772902548
   16    -0.00000000554581     0.00000004223668    -0.00000007631854    -0.00348865082567    -0.02263874715903
   17     0.00000000434514    -0.00000003087927    -0.00000010511798    -0.00240367418738    -0.01559805635292
   18     0.00000000366614    -0.00000003110801    -0.00000010635233    -0.00235979648285    -0.01531332270985
   19     0.00000036365600    -0.00000010317161     0.00000631328727     0.14692595055758     0.65360154989074
   20    -0.00000125545551     0.00000024676976    -0.00001632011611    -0.00048705371697    -0.01505055332405
   21    -0.00000060633614     0.00000018679662    -0.00001355352672    -0.00033557914101    -0.01036980435576
   22    -0.00000078598960     0.00000018806761    -0.00001372088056    -0.00032945333474    -0.01018050947793
   23     0.00000000694703    -0.00000006174403    -0.00000003343908     0.00791417332360     0.07137623097822
   24     0.00000068875728    -0.00000025270775     0.00001255171035     0.03657944000788     0.20606450940327

                16                  17                  18                  19                  20

    1     0.00000000077955     0.00000000047333     0.00000000048450    -0.00000000173717     0.00000000417879
    2    -0.00000001079089     0.00000000721510     0.00000000746467     0.00000002368008    -0.00000005838658
    3     0.00000004810355    -0.00000003573212    -0.00000003598883    -0.00000011678434     0.00000028053390
    4     0.00000002206314    -0.00000000833828    -0.00000000906721    -0.00000002283751     0.00000005698395
    5     0.00000000135061    -0.00000000001290     0.00000000002440     0.00000000012978    -0.00000000026005
    6    -0.00000000550422     0.00000000396762     0.00000000412664     0.00000001338551    -0.00000003526650
    7     0.00000005214489    -0.00000003895201    -0.00000003921879    -0.00000012431439     0.00000029096913
    8     0.00000002159658    -0.00000000770475    -0.00000000845637    -0.00000001824041     0.00000004036312
    9     0.00000000148748    -0.00000000016705    -0.00000000012819     0.00000000197414    -0.00000000999943
   10    -0.00000000552693     0.00000000992543     0.00000000957480     0.00000003615159    -0.00000008613418
   11    -0.00000000554581     0.00000000434514     0.00000000366614     0.00000036365600    -0.00000125545551
   12     0.00000004223668    -0.00000003087927    -0.00000003110801    -0.00000010317161     0.00000024676976
   13    -0.00000007631854    -0.00000010511798    -0.00000010635233     0.00000631328727    -0.00001632011611
   14    -0.00348865082567    -0.00240367418738    -0.00235979648285     0.14692595055758    -0.00048705371697
   15    -0.02263874715903    -0.01559805635292    -0.01531332270985     0.65360154989074    -0.01505055332405
   16     0.85649485857894     0.00086751963328     0.00085293839365    -0.02199887502587     0.42807150628585
   17     0.00086751963328     0.85583560256728     0.00058946248973    -0.01515718559709     0.00089476878793
   18     0.00085293839365     0.00058946248973     0.85581272593121    -0.01488049979883     0.00087972954548
   19    -0.02199887502587    -0.01515718559709    -0.01488049979883     0.85604772902267    -0.04404029928104
   20     0.42807150628585     0.00089476878793     0.00087972954548    -0.04404029928104     0.85845831753824
   21     0.00089476878655     0.42739154276896     0.00060797775374    -0.03034368753623     0.00467701777707
   22     0.00087972954408     0.00060797775374     0.42736794756821    -0.02978978078649     0.00459840662583
   23     0.08959290579760    -0.00118557468232    -0.00116372909282     0.20182754527497     0.35658456763923
   24     0.08146146639339    -0.00501818460618    -0.00492628693109     0.41195905595777     0.31811805774522

                21                  22                  23                  24

    1     0.00000000352572     0.00000000362136    -0.00000000031177    -0.00000000370046
    2    -0.00000004073524    -0.00000004167570     0.00000001659178     0.00000005836491
    3     0.00000020982485     0.00000021079310    -0.00000007153920    -0.00000029586516
    4     0.00000003169209     0.00000003436469    -0.00000002805602    -0.00000007363943
    5    -0.00000000068450    -0.00000000063121    -0.00000000104623    -0.00000000376600
    6    -0.00000002360353    -0.00000002401547     0.00000000938946     0.00000004766065
    7     0.00000021903091     0.00000022065571    -0.00000007758259    -0.00000024745805
    8     0.00000002044853     0.00000002285697    -0.00000002708246    -0.00000002686577
    9    -0.00000000725694    -0.00000000635731    -0.00000000116882     0.00000003594103
   10    -0.00000007091032    -0.00000007016251     0.00000001202534     0.00000007760226
   11    -0.00000060633614    -0.00000078598960     0.00000000694703     0.00000068875728
   12     0.00000018679662     0.00000018806761    -0.00000006174403    -0.00000025270775
   13    -0.00001355352672    -0.00001372088056    -0.00000003343908     0.00001255171035
   14    -0.00033557914101    -0.00032945333474     0.00791417332360     0.03657944000788
   15    -0.01036980435576    -0.01018050947793     0.07137623097822     0.20606450940327
   16     0.00089476878655     0.00087972954408     0.08959290579760     0.08146146639339
   17     0.42739154276896     0.00060797775374    -0.00118557468232    -0.00501818460618
   18     0.00060797775374     0.42736794756821    -0.00116372909282    -0.00492628693109
   19    -0.03034368753623    -0.02978978078649     0.20182754527497     0.41195905595777
   20     0.00467701777707     0.00459840662583     0.35658456763923     0.31811805774522
   21     0.85490410162412     0.00317794138666    -0.00402413888555    -0.01847098508438
   22     0.00317794138666     0.85478076789240    -0.00394931965832    -0.01813057877157
   23    -0.00402413888555    -0.00394931965832     0.74593548859774     0.49104340146217
   24    -0.01847098508438    -0.01813057877157     0.49104340146217     0.74593548859112



  ## H (Symmetry 0) ##
  Irrep: 1 Size: 24 x 24

                 1                   2                   3                   4                   5

    1   -33.03801029732087    -7.36559222143042    -0.01269929784631    -0.02385635368728     0.00003760518363
    2    -7.36559222143042    -9.91655706571519    -0.08639486172405    -0.16222570724310     0.00025657504604
    3    -0.01269929784631    -0.08639486172405    -8.51969524196081     0.01825519888819     0.00001779639597
    4    -0.02385635368728    -0.16222570724310     0.01825519888819    -8.49810263598169     0.00001626903865
    5     0.00003760518363     0.00025657504604     0.00001779639597     0.00001626903865    -8.42338517652363
    6    -5.37061673525414    -7.38434245140324    -0.08171753272951    -0.15308030937456     0.00024959684718
    7    -0.00174994031427    -0.05541590031339    -3.80895737803945     0.01655601608203     0.00001830963022
    8    -0.00328736245351    -0.10375631072511     0.01655601608169    -3.78893324115609     0.00001673822505
    9     0.00000518192644     0.00017020846202     0.00001830963036     0.00001673822507    -3.72091536640347
   10    -1.13190275080824    -2.36657287051055     0.89661546041258    -2.10606268235739     0.00006117450173
   11    -2.22020300991281    -3.62849419302774     0.41845233804388    -1.11667410323634     0.00013352993882
   12    -1.10064128636234    -2.31947475605481    -2.22176471309120    -0.38428264524993     0.00006643629500
   13    -2.20387074423587    -3.60460852334686    -1.16376352874635    -0.25473145908168     0.00013712464180
   14     0.00000000000199     0.00000000063986     0.00000000101224     0.00000000012676     0.00000000003711
   15     0.00000000057670     0.00000003775511     0.00000014869329     0.00000001706637     0.00000000176666
   16     0.00000000001618    -0.00000009787069    -0.00000028724793    -0.00000003822382    -0.00000000334468
   17    -0.00000000013677    -0.00000013711480    -0.00000043341641    -0.00000004033262    -0.00000000493436
   18    -0.00000000012732    -0.00000014097880    -0.00000043591723    -0.00000004712687    -0.00000000481677
   19     0.00000000065313     0.00000003452582     0.00000013922029     0.00000001552970     0.00000000183551
   20     0.00000000002035    -0.00000010782200    -0.00000031599390    -0.00000004198572    -0.00000000365232
   21    -0.00000000013812    -0.00000012424249    -0.00000039253278    -0.00000003650528    -0.00000000452360
   22    -0.00000000013161    -0.00000012770709    -0.00000039471392    -0.00000004270317    -0.00000000431586
   23     0.00000000018320    -0.00000006041791    -0.00000016844179    -0.00000002266047    -0.00000000149711
   24     0.00000000033515    -0.00000004299537    -0.00000010976968    -0.00000001577921    -0.00000000091946

                 6                   7                   8                   9                  10

    1    -5.37061673525414    -0.00174994031427    -0.00328736245351     0.00000518192644    -1.13190275080824
    2    -7.38434245140324    -0.05541590031339    -0.10375631072511     0.00017020846202    -2.36657287051055
    3    -0.08171753272951    -3.80895737803945     0.01655601608169     0.00001830963036     0.89661546041258
    4    -0.15308030937456     0.01655601608203    -3.78893324115609     0.00001673822507    -2.10606268235739
    5     0.00024959684718     0.00001830963022     0.00001673822505    -3.72091536640347     0.00006117450173
    6    -7.26020210461200    -0.11658945732953    -0.21593243155843     0.00049768010869    -2.91441853017943
    7    -0.11658945732953    -4.76932540420101     0.03740390012857     0.00009520002642     1.22770532118381
    8    -0.21593243155843     0.03740390012857    -4.72141714092842     0.00008702958199    -2.87397177996704
    9     0.00049768010869     0.00009520002642     0.00008702958199    -4.56635542341628     0.00012695898150
   10    -2.91441853017943     1.22770532118381    -2.87397177996704     0.00012695898150    -5.01292565435329
   11    -4.37615636159932     0.77986194312292    -2.06582411746692     0.00044885099926    -3.56332920379264
   12    -2.87742083158281    -3.06597778652351    -0.52619859178833     0.00015474763799    -0.45482442850703
   13    -4.35288485020229    -2.16209383345399    -0.46652622731489     0.00049486754367    -1.46938444042220
   14    -0.00000000043471    -0.00000000140623    -0.00000000032793    -0.00000000022200     0.00000000001567
   15    -0.00000004646242    -0.00000000927625    -0.00000000342195    -0.00000001006407    -0.00000002065206
   16     0.00000009984697     0.00000005198374     0.00000000608476     0.00000001859160     0.00000003337249
   17     0.00000014092496     0.00000007276612     0.00000000802252     0.00000002651093     0.00000004266211
   18     0.00000014497183     0.00000007383664     0.00000000904553     0.00000002612816     0.00000004628664
   19    -0.00000004700639    -0.00000003068224    -0.00000001844216    -0.00000002354018    -0.00000001930901
   20     0.00000012691080     0.00000013542635     0.00000006327594     0.00000007485169     0.00000003661295
   21     0.00000013949598     0.00000012348302     0.00000004276265     0.00000006224739     0.00000003860522
   22     0.00000014269187     0.00000012248419     0.00000004656786     0.00000005609358     0.00000004188911
   23     0.00000006005615     0.00000003389123     0.00000000105566     0.00000000830805     0.00000001864408
   24    -0.00000001246370    -0.00000018548828    -0.00000011550873    -0.00000010594923     0.00000001099743

                11                  12                  13                  14                  15

    1    -2.22020300991281    -1.10064128636234    -2.20387074423587     0.00000000000199     0.00000000057670
    2    -3.62849419302774    -2.31947475605481    -3.60460852334686     0.00000000063986     0.00000003775511
    3     0.41845233804388    -2.22176471309120    -1.16376352874635     0.00000000101224     0.00000014869329
    4    -1.11667410323634    -0.38428264524993    -0.25473145908168     0.00000000012676     0.00000001706637
    5     0.00013352993882     0.00006643629500     0.00013712464180     0.00000000003711     0.00000000176666
    6    -4.37615636159932    -2.87742083158281    -4.35288485020229    -0.00000000043471    -0.00000004646242
    7     0.77986194312292    -3.06597778652351    -2.16209383345399    -0.00000000140623    -0.00000000927625
    8    -2.06582411746692    -0.52619859178833    -0.46652622731489    -0.00000000032793    -0.00000000342195
    9     0.00044885099926     0.00015474763799     0.00049486754367    -0.00000000022200    -0.00000001006407
   10    -3.56332920379264    -0.45482442850703    -1.46938444042220     0.00000000001567    -0.00000002065206
   11    -4.51088715748533    -1.46344409685043    -2.79549580537734    -0.00000000354675    -0.00000016038801
   12    -1.46344409685043    -4.98206817703849    -3.54528197061509    -0.00000000164844    -0.00000005700346
   13    -2.79549580537734    -3.54528197061509    -4.49632421269125    -0.00000013594665    -0.00000228113667
   14    -0.00000000354675    -0.00000000164844    -0.00000013594665   -27.13683147451388    -7.04328026460456
   15    -0.00000016038801    -0.00000005700346    -0.00000228113667    -7.04328026460456    -3.64552951981646
   16     0.00000028069609     0.00000016455141     0.00000251314952    -0.01665515303950     0.00659864312883
   17     0.00000029167631     0.00000023616170     0.00000323903565     0.00242785872038     0.01567107470579
   18     0.00000033319111     0.00000024023350     0.00000328735959     0.00244835834340     0.01558235012128
   19    -0.00000131974000    -0.00000005359949    -0.00002078751694    -4.91734380189305    -3.34861501037354
   20     0.00000412275795     0.00000018235225     0.00004670224950    -0.00301265172140    -0.00484400164991
   21     0.00000203284786     0.00000021510069     0.00003977171005     0.00033855054808     0.01042849376484
   22     0.00000266105069     0.00000021893278     0.00004031046259     0.00034036442621     0.01039613676761
   23     0.00000013717003     0.00000010318422     0.00000076042609    -0.27816093541531    -0.48614155183223
   24    -0.00000149459082     0.00000003484913    -0.00002784784497    -1.23975894155618    -1.16826907069521

                16                  17                  18                  19                  20

    1     0.00000000001618    -0.00000000013677    -0.00000000012732     0.00000000065313     0.00000000002035
    2    -0.00000009787069    -0.00000013711480    -0.00000014097880     0.00000003452582    -0.00000010782200
    3    -0.00000028724793    -0.00000043341641    -0.00000043591723     0.00000013922029    -0.00000031599390
    4    -0.00000003822382    -0.00000004033262    -0.00000004712687     0.00000001552970    -0.00000004198572
    5    -0.00000000334468    -0.00000000493436    -0.00000000481677     0.00000000183551    -0.00000000365232
    6     0.00000009984697     0.00000014092496     0.00000014497183    -0.00000004700639     0.00000012691080
    7     0.00000005198374     0.00000007276612     0.00000007383664    -0.00000003068224     0.00000013542635
    8     0.00000000608476     0.00000000802252     0.00000000904553    -0.00000001844216     0.00000006327594
    9     0.00000001859160     0.00000002651093     0.00000002612816    -0.00000002354018     0.00000007485169
   10     0.00000003337249     0.00000004266211     0.00000004628664    -0.00000001930901     0.00000003661295
   11     0.00000028069609     0.00000029167631     0.00000033319111    -0.00000131974000     0.00000412275795
   12     0.00000016455141     0.00000023616170     0.00000024023350    -0.00000005359949     0.00000018235225
   13     0.00000251314952     0.00000323903565     0.00000328735959    -0.00002078751694     0.00004670224950
   14    -0.01665515303950     0.00242785872038     0.00244835834340    -4.91734380189305    -0.00301265172140
   15     0.00659864312883     0.01567107470579     0.01558235012128    -3.34861501037354    -0.00484400164991
   16    -0.90260455012328    -0.00088541579439    -0.00092235547743    -0.02790917976407    -1.19608121741838
   17    -0.00088541579439    -1.09656973698886    -0.00058160907800     0.01524899138278    -0.00091176497763
   18    -0.00092235547743    -0.00058160907800    -1.09653737643422     0.01521790700232    -0.00093530815871
   19    -0.02790917976407     0.01524899138278     0.01521790700232    -2.86919446374042    -0.07983077820837
   20    -1.19608121741838    -0.00091176497763    -0.00093530815871    -0.07983077820837    -0.91422073420228
   21    -0.00091234470205    -1.24816962551962    -0.00062151079971     0.03053860317277    -0.00473255923573
   22    -0.00093603749469    -0.00062151103443    -1.24816221004499     0.03050656261201    -0.00474968538041
   23    -0.52381578615421     0.00119669305707     0.00120361333370    -0.63188397359178    -0.73446432566769
   24    -0.42478412469396     0.00505836019301     0.00507587124856    -1.20890375052120    -0.59161308646404

                21                  22                  23                  24

    1    -0.00000000013812    -0.00000000013161     0.00000000018320     0.00000000033515
    2    -0.00000012424249    -0.00000012770709    -0.00000006041791    -0.00000004299537
    3    -0.00000039253278    -0.00000039471392    -0.00000016844179    -0.00000010976968
    4    -0.00000003650528    -0.00000004270317    -0.00000002266047    -0.00000001577921
    5    -0.00000000452360    -0.00000000431586    -0.00000000149711    -0.00000000091946
    6     0.00000013949598     0.00000014269187     0.00000006005615    -0.00000001246370
    7     0.00000012348302     0.00000012248419     0.00000003389123    -0.00000018548828
    8     0.00000004276265     0.00000004656786     0.00000000105566    -0.00000011550873
    9     0.00000006224739     0.00000005609358     0.00000000830805    -0.00000010594923
   10     0.00000003860522     0.00000004188911     0.00000001864408     0.00000001099743
   11     0.00000203284786     0.00000266105069     0.00000013717003    -0.00000149459082
   12     0.00000021510069     0.00000021893278     0.00000010318422     0.00000003484913
   13     0.00003977171005     0.00004031046259     0.00000076042609    -0.00002784784497
   14     0.00033855054808     0.00034036442621    -0.27816093541531    -1.23975894155618
   15     0.01042849376484     0.01039613676761    -0.48614155183223    -1.16826907069521
   16    -0.00091234470205    -0.00093603749469    -0.52381578615421    -0.42478412469396
   17    -1.24816962551962    -0.00062151103443     0.00119669305707     0.00505836019301
   18    -0.00062151079971    -1.24816221004499     0.00120361333370     0.00507587124856
   19     0.03053860317277     0.03050656261201    -0.63188397359178    -1.20890375052120
   20    -0.00473255923573    -0.00474968538041    -0.73446432566769    -0.59161308646404
   21    -0.77329133899661    -0.00326562649357     0.00404840006746     0.01858406612433
   22    -0.00326562649357    -0.77327300287855     0.00405311506937     0.01857635675016
   23     0.00404840006746     0.00405311506937    -0.75219632516729    -0.95011761047629
   24     0.01858406612433     0.01857635675016    -0.95011761047629    -1.16861737077591





	Energy of system A =     -85.097615383050 

	

	Energy of system B =    -112.461707135827 

	

	 Embedded energy =    -175.919458799955 
 
	

	Energy of system  =    -175.919458799955 

	

	Error  =       0.000000000000 

	Reading options from the PLUGIN_PROP block
Calling plugin /Users/kevinhannon/Programs/PsiPlugins_psi4public/plugin_prop/plugin_prop.so.

*** tstart() called on Kevins-MacBook-Pro.local
*** at Fri Jan  9 17:28:54 2015

