    -----------------------------------------------------------------------
          PSI4: An Open-Source Ab Initio Electronic Structure Package
                              PSI 4.0 Driver

               Git: Rev {master} 556e8139d3cfa1f96ccffe2cdf22cc56a185d2b2

    J. M. Turney, A. C. Simmonett, R. M. Parrish, E. G. Hohenstein,
    F. A. Evangelista, J. T. Fermann, B. J. Mintz, L. A. Burns, J. J. Wilke,
    M. L. Abrams, N. J. Russ, M. L. Leininger, C. L. Janssen, E. T. Seidl,
    W. D. Allen, H. F. Schaefer, R. A. King, E. F. Valeev, C. D. Sherrill,
    and T. D. Crawford, WIREs Comput. Mol. Sci. 2, 556-565 (2012)
    (doi: 10.1002/wcms.93)

                         Additional Contributions by
    A. E. DePrince, M. Saitow, U. Bozkaya, A. Yu. Sokolov
    -----------------------------------------------------------------------

    Process ID:  52859
    PSI4DATADIR: /Users/kevinhannon/Programs/psi4cmake/psi4/lib
    Memory level set to 256.000 MB

  ==> Input File <==

--------------------------------------------------------------------------

# PYTHONPATH must include directory above plugin directory.
#     Define either externally or here, then import plugin.


# Path to plugin_prop.so
objdir = '/Users/kevinhannon/Programs/Quantum_Programs/Quantum-Programs/plugin_prop'
# Path to data directory
datadir = 'data/'

import sys
sys.path.append(objdir)
import prop

sys.path.insert(0, './..')

import plugin_fragment

#molecule {
##O         -1.485163346097    -0.114724564047     0.000000000000
##H         -1.868415346097     0.762298435953     0.000000000000
#H         -0.533833346097     0.040507435953     0.000000000000
#--
##H        8.200             7.000             7.000
#units angstrom
#symmetry c1
#}

#molecule {
#H        200000000.00               200000000.000             200000000.000
#H        200000001.00               200000000.000             200000000.000
#--
#H        -1003.000             -1003.000             -1003.000
#H        -1002.000             -1003.000             -1003.000
#units angstrom
#symmetry c1
#}
molecule {
O         -1.485163346097    -0.114724564047     0.000000000000
H         -1.868415346097     0.762298435953     0.000000000000
H         -0.533833346097     0.040507435953     0.000000000000
--
F        3.000             3.000             3.000
H        4.200             3.000             3.000
##F        7.000             7.000             7.000
symmetry c1
units angstrom
}


set {
  basis 6-31g
  r_convergence 1e-12
  d_convergence 1e-12
  LocalCut  0.02
  reference rhf
  SCF_type PK
  property_filepath 'data'
  property_tasks ['ORBITALS']
  property_orbitals [] #1,2,3,4,5,6,7,8,9,10,11,12,13,14,15,16,17,18,19,20,21,22,23,24,25,26,27,28,29,30,31,32,33]
  freeze_core false
}

set plugin_fragment {
  print 3
}

energy('scf')
energy('plugin_fragment')
#energy('ccsd')
#print cc2
#print scf
#cc2newH = energy('conv-mp2')
energy('prop')
#plugin_local.exampleFN()

--------------------------------------------------------------------------

*** tstart() called on Kevins-MacBook-Pro.local
*** at Fri Jan  9 17:31:35 2015

/Users/kevinhannon/Programs/Quantum_Programs/Quantum-Programs/plugin_prop/plugin_prop.so loaded.
/Users/kevinhannon/Programs/Quantum_Programs/Quantum-Programs/plugin_fragment/plugin_fragment.so loaded.

*** tstart() called on Kevins-MacBook-Pro.local
*** at Fri Jan  9 17:31:35 2015

    There are an even number of electrons - assuming singlet.
    Specify the multiplicity with the MULTP option in the
    input if this is incorrect


         ---------------------------------------------------------
                                   SCF
            by Justin Turney, Rob Parrish, and Andy Simmonett
                              RHF Reference
                        1 Threads,    256 MiB Core
         ---------------------------------------------------------

  ==> Geometry <==

    Molecular point group: c1
    Full point group: C1

    Geometry (in Angstrom), charge = 0, multiplicity = 1:

       Center              X                  Y                   Z       
    ------------   -----------------  -----------------  -----------------
           O         -2.407176088730    -1.666479945112    -1.578741396290
           H         -2.790428088730    -0.789456945112    -1.578741396290
           H         -1.455846088730    -1.511247945112    -1.578741396290
           F          2.077987257367     1.448244618935     1.421258603710
           H          3.277987257367     1.448244618935     1.421258603710

  Running in c1 symmetry.

  Rotational constants: A =      9.04598  B =      0.04574  C =      0.04557 [cm^-1]
  Rotational constants: A = 271191.61763  B =   1371.33495  C =   1366.27736 [MHz]
  Nuclear repulsion =   21.639863718922200

  Charge       = 0
  Multiplicity = 1
  Electrons    = 20
  Nalpha       = 10
  Nbeta        = 10

  ==> Algorithm <==

  SCF Algorithm Type is PK.
  DIIS enabled.
  MOM disabled.
  Fractional occupation disabled.
  Guess Type is CORE.
  Energy threshold   = 1.00e-06
  Density threshold  = 1.00e-12
  Integral threshold = 0.00e+00

  ==> Primary Basis <==

  Basis Set: 6-31G
    Number of shells: 16
    Number of basis function: 24
    Number of Cartesian functions: 24
    Spherical Harmonics?: false
    Max angular momentum: 1

  ==> Pre-Iterations <==

   -------------------------------------------------------
    Irrep   Nso     Nmo     Nalpha   Nbeta   Ndocc  Nsocc
   -------------------------------------------------------
     A         24      24       0       0       0       0
   -------------------------------------------------------
    Total      24      24      10      10      10       0
   -------------------------------------------------------

  Starting with a DF guess...

 OEINTS: Overlap, kinetic, potential, dipole, and quadrupole integrals
         stored in file 35.

  ==> Integral Setup <==

  ==> DFJK: Density-Fitted J/K Matrices <==

    J tasked:                  Yes
    K tasked:                  Yes
    wK tasked:                  No
    OpenMP threads:              1
    Integrals threads:           1
    Memory (MB):               183
    Algorithm:                Core
    Integral Cache:           NONE
    Schwarz Cutoff:          1E-12
    Fitting Condition:       1E-12

   => Auxiliary Basis Set <=

  Basis Set: 
    Number of shells: 75
    Number of basis function: 237
    Number of Cartesian functions: 237
    Spherical Harmonics?: false
    Max angular momentum: 3

  Minimum eigenvalue in the overlap matrix is 6.8158211678E-02.
  Using Symmetric Orthogonalization.
  SCF Guess: Core (One-Electron) Hamiltonian.

  ==> Iterations <==

                           Total Energy        Delta E     RMS |[F,P]|

   @DF-RHF iter   1:  -163.15406474908724   -1.63154e+02   1.61724e-01 
   @DF-RHF iter   2:  -164.87742161158315   -1.72336e+00   1.52081e-01 DIIS
   @DF-RHF iter   3:  -173.35005570535731   -8.47263e+00   6.22345e-02 DIIS
   @DF-RHF iter   4:  -175.63110642955098   -2.28105e+00   3.40115e-02 DIIS
   @DF-RHF iter   5:  -175.85269341609586   -2.21587e-01   1.57207e-02 DIIS
   @DF-RHF iter   6:  -175.91423678435712   -6.15434e-02   3.88897e-03 DIIS
   @DF-RHF iter   7:  -175.91920601050816   -4.96923e-03   5.99196e-04 DIIS
   @DF-RHF iter   8:  -175.91941168805027   -2.05678e-04   1.78101e-04 DIIS
   @DF-RHF iter   9:  -175.91942540654446   -1.37185e-05   3.63392e-05 DIIS
   @DF-RHF iter  10:  -175.91942564592108   -2.39377e-07   1.44427e-05 DIIS
   @DF-RHF iter  11:  -175.91942572309858   -7.71775e-08   3.73150e-06 DIIS
   @DF-RHF iter  12:  -175.91942572715300   -4.05441e-09   4.49564e-07 DIIS
   @DF-RHF iter  13:  -175.91942572722320   -7.02016e-11   5.93486e-08 DIIS
   @DF-RHF iter  14:  -175.91942572722832   -5.11591e-12   2.00220e-08 DIIS
   @DF-RHF iter  15:  -175.91942572722871   -3.97904e-13   2.48744e-09 DIIS
   @DF-RHF iter  16:  -175.91942572722866    5.68434e-14   5.86445e-10 DIIS
   @DF-RHF iter  17:  -175.91942572722877   -1.13687e-13   1.30649e-10 DIIS
   @DF-RHF iter  18:  -175.91942572722877    0.00000e+00   2.19028e-11 DIIS
   @DF-RHF iter  19:  -175.91942572722894   -1.70530e-13   4.93293e-12 DIIS
   @DF-RHF iter  20:  -175.91942572722866    2.84217e-13   8.06167e-13 DIIS

  DF guess converged.

  ==> Integral Setup <==

 MINTS: Wrapper to libmints.
   by Justin Turney

   Calculation information:
      Number of atoms:                   5
      Number of AO shells:              16
      Number of SO shells:              16
      Number of primitives:             40
      Number of atomic orbitals:        24
      Number of basis functions:        24

      Number of irreps:                  1
      Integral cutoff                 0.00e+00
      Number of functions per irrep: [  24 ]

 OEINTS: Overlap, kinetic, potential, dipole, and quadrupole integrals
         stored in file 35.

      Computing two-electron integrals...done
      Computed 44063 non-zero two-electron integrals.
        Stored in file 33.

	Batch   1 pq = [       0,     300] index = [             0,45150]
  ==> DiskJK: Disk-Based J/K Matrices <==

    J tasked:                  Yes
    K tasked:                  Yes
    wK tasked:                  No
    Memory (MB):               183
    Schwarz Cutoff:          1E-12

   @RHF iter  21:  -175.91945879960019   -3.30724e-05   1.15911e-06 DIIS
   @RHF iter  22:  -175.91945879988606   -2.85866e-10   5.71899e-07 DIIS
   @RHF iter  23:  -175.91945879994995   -6.38920e-11   1.28861e-07 DIIS
   @RHF iter  24:  -175.91945879995461   -4.66116e-12   1.59628e-08 DIIS
   @RHF iter  25:  -175.91945879995484   -2.27374e-13   4.24315e-09 DIIS
   @RHF iter  26:  -175.91945879995490   -5.68434e-14   1.14243e-09 DIIS
   @RHF iter  27:  -175.91945879995484    5.68434e-14   2.06803e-10 DIIS
   @RHF iter  28:  -175.91945879995490   -5.68434e-14   3.94376e-11 DIIS
   @RHF iter  29:  -175.91945879995478    1.13687e-13   7.60727e-12 DIIS
   @RHF iter  30:  -175.91945879995478    0.00000e+00   2.41615e-12 DIIS
   @RHF iter  31:  -175.91945879995490   -1.13687e-13   9.37914e-13 DIIS

  ==> Post-Iterations <==

    Orbital Energies (a.u.)
    -----------------------

    Doubly Occupied:                                                      

       1A    -26.288221     2A    -20.555895     3A     -1.523778  
       4A     -1.349526     5A     -0.702840     6A     -0.646817  
       7A     -0.616964     8A     -0.616903     9A     -0.555473  
      10A     -0.496116  

    Virtual:                                                              

      11A      0.110197    12A      0.208704    13A      0.304569  
      14A      0.911295    15A      1.060481    16A      1.169521  
      17A      1.189191    18A      1.221105    19A      1.383425  
      20A      1.497391    21A      1.497538    22A      1.630763  
      23A      1.701994    24A      1.918102  

    Final Occupation by Irrep:
              A 
    DOCC [    10 ]

  Energy converged.

  @RHF Final Energy:  -175.91945879995490

   => Energetics <=

    Nuclear Repulsion Energy =             21.6398637189222001
    One-Electron Energy =                -288.4135787041460617
    Two-Electron Energy =                  90.8542561852690085
    DFT Exchange-Correlation Energy =       0.0000000000000000
    Empirical Dispersion Energy =           0.0000000000000000
    Total Energy =                       -175.9194587999548673



Properties will be evaluated at   0.000000,   0.000000,   0.000000 Bohr
  ==> Properties <==


Properties computed using the SCF density matrix

  Nuclear Dipole Moment: (a.u.)
     X:    -2.8796      Y:    -2.1734      Z:    -2.9760

  Electronic Dipole Moment: (a.u.)
     X:     4.4228      Y:     3.0852      Z:     2.9772

  Dipole Moment: (a.u.)
     X:     1.5432      Y:     0.9119      Z:     0.0012     Total:     1.7925

  Dipole Moment: (Debye)
     X:     3.9223      Y:     2.3178      Z:     0.0030     Total:     4.5560


  Saving occupied orbitals to File 180.

*** tstop() called on Kevins-MacBook-Pro.local at Fri Jan  9 17:31:35 2015
Module time:
	user time   =       0.42 seconds =       0.01 minutes
	system time =       0.02 seconds =       0.00 minutes
	total time  =          0 seconds =       0.00 minutes
Total time:
	user time   =       0.44 seconds =       0.01 minutes
	system time =       0.02 seconds =       0.00 minutes
	total time  =          0 seconds =       0.00 minutes
Reading options from the PLUGIN_FRAGMENT block
Calling plugin plugin_fragment.so.
   => Loading Basis Set <=

    Role: BASIS
    Keyword: BASIS
    Name: 6-31G
    atoms 1      entry O          line   112 file /Users/kevinhannon/Programs/psi4cmake/psi4/lib/basis/6-31g.gbs
    atoms 2-3, 5 entry H          line    21 file /Users/kevinhannon/Programs/psi4cmake/psi4/lib/basis/6-31g.gbs
    atoms 4      entry F          line   127 file /Users/kevinhannon/Programs/psi4cmake/psi4/lib/basis/6-31g.gbs



         ---------------------------------------------------------
                            ORBITAL LOCALIZATION
                        by Francesco A. Evangelista
         ---------------------------------------------------------

  ==> Details <==

    Number of fragments: 2
  Fragment contains 3 atoms
The number of basis functions on A are 13
The number of basis functions on B are 11number of electrons 10
 # lo #
 Irrep: 1
      1:  1.0000000
      2:  1.0000000
      3:  1.0000000
      4:  1.0000000
      5:  1.0000000
      6:  0.0000000
      7:  0.0000000
      8:  0.0000000
      9:  0.0000000
     10:  0.0000000


 # lv #
 Irrep: 1
      1:  1.0000000
      2:  1.0000000
      3:  1.0000000
      4:  1.0000000
      5:  1.0000000
      6:  1.0000000
      7:  1.0000000
      8:  1.0000000
      9:  0.0000000
     10:  0.0000000
     11:  0.0000000
     12:  0.0000000
     13:  0.0000000
     14: -0.0000000

  ## U (Symmetry 0) ##
  Irrep: 1 Size: 24 x 24

                 1                   2                   3                   4                   5

    1     0.00000000003039     0.00000000005258    -0.00000000000408     0.00000000015149    -0.00000000078866
    2     0.24376418630589     0.94080296155980    -0.21340522179138    -0.09913169368806     0.00999638002737
    3    -0.00000003512731    -0.00000005907645    -0.00000011731970    -0.00000024119182     0.00000102129906
    4     0.04642912809802     0.22452072422778     0.95484283446192     0.18889455141795    -0.00536566655618
    5     0.10388102816121     0.01950023919017    -0.15125600122894     0.69616570692976    -0.69376033506101
    6     0.00000298961232     0.00000040546371    -0.00000404557953     0.00001940995768    -0.00000572984246
    7    -0.00000440913089    -0.00000047922237     0.00000584934565    -0.00002838052009    -0.00000253772100
    8     0.00000116945536     0.00000013320554    -0.00000156930584     0.00000759959272     0.00000043863697
    9    -0.11432646153341    -0.00282911819297     0.13493194181963    -0.67105588171666    -0.71999918774471
   10     0.95632711437581    -0.25316391661117     0.04060007271993    -0.13974643687624    -0.01300188875680
   11     0.00000000000000     0.00000000000000     0.00000000000000     0.00000000000000     0.00000000000000
   12     0.00000000000000     0.00000000000000     0.00000000000000     0.00000000000000     0.00000000000000
   13     0.00000000000000     0.00000000000000     0.00000000000000     0.00000000000000     0.00000000000000
   14     0.00000000000000     0.00000000000000     0.00000000000000     0.00000000000000     0.00000000000000
   15     0.00000000000000     0.00000000000000     0.00000000000000     0.00000000000000     0.00000000000000
   16     0.00000000000000     0.00000000000000     0.00000000000000     0.00000000000000     0.00000000000000
   17     0.00000000000000     0.00000000000000     0.00000000000000     0.00000000000000     0.00000000000000
   18     0.00000000000000     0.00000000000000     0.00000000000000     0.00000000000000     0.00000000000000
   19     0.00000000000000     0.00000000000000     0.00000000000000     0.00000000000000     0.00000000000000
   20     0.00000000000000     0.00000000000000     0.00000000000000     0.00000000000000     0.00000000000000
   21     0.00000000000000     0.00000000000000     0.00000000000000     0.00000000000000     0.00000000000000
   22     0.00000000000000     0.00000000000000     0.00000000000000     0.00000000000000     0.00000000000000
   23     0.00000000000000     0.00000000000000     0.00000000000000     0.00000000000000     0.00000000000000
   24     0.00000000000000     0.00000000000000     0.00000000000000     0.00000000000000     0.00000000000000

                 6                   7                   8                   9                  10

    1     0.00020326353726    -0.00172745361873    -0.00035469522035    -0.00264522058428    -0.99999492578077
    2    -0.00000001717046     0.00000000208101     0.00000000045444     0.00000000018032     0.00000000002713
    3    -0.16943040212172     0.92813909813205     0.33052538431557    -0.02452074859270    -0.00169013782784
    4     0.00000006681167     0.00000018671530     0.00000004845105     0.00000000147511    -0.00000000028788
    5     0.00002600650905     0.00000697430286    -0.00000345878000     0.00000245231066    -0.00000001136436
    6    -0.48467064190565    -0.35450399173006     0.72144727017543    -0.34486773579138     0.00117023660744
    7     0.82870179266612     0.01274911703340     0.35704419113393    -0.43082351297288     0.00115940858911
    8    -0.22280261208316     0.11277947610144    -0.49273332181219    -0.83357608001219     0.00213966465554
    9    -0.00002449663522    -0.00000255982101    -0.00000349806132     0.00000135732001    -0.00000000244497
   10    -0.00000015023617    -0.00000001001205    -0.00000003945578     0.00000000601146    -0.00000000001048
   11     0.00000000000000     0.00000000000000     0.00000000000000     0.00000000000000     0.00000000000000
   12     0.00000000000000     0.00000000000000     0.00000000000000     0.00000000000000     0.00000000000000
   13     0.00000000000000     0.00000000000000     0.00000000000000     0.00000000000000     0.00000000000000
   14     0.00000000000000     0.00000000000000     0.00000000000000     0.00000000000000     0.00000000000000
   15     0.00000000000000     0.00000000000000     0.00000000000000     0.00000000000000     0.00000000000000
   16     0.00000000000000     0.00000000000000     0.00000000000000     0.00000000000000     0.00000000000000
   17     0.00000000000000     0.00000000000000     0.00000000000000     0.00000000000000     0.00000000000000
   18     0.00000000000000     0.00000000000000     0.00000000000000     0.00000000000000     0.00000000000000
   19     0.00000000000000     0.00000000000000     0.00000000000000     0.00000000000000     0.00000000000000
   20     0.00000000000000     0.00000000000000     0.00000000000000     0.00000000000000     0.00000000000000
   21     0.00000000000000     0.00000000000000     0.00000000000000     0.00000000000000     0.00000000000000
   22     0.00000000000000     0.00000000000000     0.00000000000000     0.00000000000000     0.00000000000000
   23     0.00000000000000     0.00000000000000     0.00000000000000     0.00000000000000     0.00000000000000
   24     0.00000000000000     0.00000000000000     0.00000000000000     0.00000000000000     0.00000000000000

                11                  12                  13                  14                  15

    1     0.00000000000000     0.00000000000000     0.00000000000000     0.00000000000000     0.00000000000000
    2     0.00000000000000     0.00000000000000     0.00000000000000     0.00000000000000     0.00000000000000
    3     0.00000000000000     0.00000000000000     0.00000000000000     0.00000000000000     0.00000000000000
    4     0.00000000000000     0.00000000000000     0.00000000000000     0.00000000000000     0.00000000000000
    5     0.00000000000000     0.00000000000000     0.00000000000000     0.00000000000000     0.00000000000000
    6     0.00000000000000     0.00000000000000     0.00000000000000     0.00000000000000     0.00000000000000
    7     0.00000000000000     0.00000000000000     0.00000000000000     0.00000000000000     0.00000000000000
    8     0.00000000000000     0.00000000000000     0.00000000000000     0.00000000000000     0.00000000000000
    9     0.00000000000000     0.00000000000000     0.00000000000000     0.00000000000000     0.00000000000000
   10     0.00000000000000     0.00000000000000     0.00000000000000     0.00000000000000     0.00000000000000
   11    -0.00000451618133     0.00000124771578     0.00001626098042     0.00000842926694    -0.00002337942177
   12    -0.05176690130901     0.01659493913786     0.15563704166845     0.12503238268604    -0.18964828418584
   13    -0.06801855339258     0.02437390195587     0.16851066490612     0.19116936914716    -0.16129192024675
   14     0.00002936307379    -0.00001048197434    -0.00002112240726    -0.00004842046286    -0.00003078457548
   15     0.59940618850982    -0.16252283032249    -0.47159387380858    -0.32551859454143    -0.40519448116580
   16     0.29102574622667     0.94760781687002     0.08277634046272    -0.09705406309984     0.03115735587129
   17    -0.20355785541163    -0.00766309108094     0.61328400936763    -0.34954246149517    -0.44831989455075
   18    -0.67892242410601     0.26744240378005    -0.57245190784946    -0.03533195747841    -0.36378399432322
   19     0.17727713649089    -0.01405339471510     0.11112770317470     0.28817316392990    -0.65947227411712
   20     0.00009715813835     0.00000912026083     0.00001244225786     0.00031751778619    -0.00020937877203
   21    -0.00002628843411    -0.00000241256822    -0.00000433132232    -0.00008568675124     0.00005902346226
   22     0.00009822592887     0.00003083367721    -0.00002104009202     0.00051885414503    -0.00010379624005
   23     0.12211158128900     0.05454002714467    -0.04428015387176     0.79118069744514    -0.06805757909486
   24    -0.00000313226812    -0.00000309727827     0.00000250175416    -0.00003481120510    -0.00000282354575

                16                  17                  18                  19                  20

    1     0.00000000000000     0.00000000000000     0.00000000000000     0.00000000000000     0.00000000000000
    2     0.00000000000000     0.00000000000000     0.00000000000000     0.00000000000000     0.00000000000000
    3     0.00000000000000     0.00000000000000     0.00000000000000     0.00000000000000     0.00000000000000
    4     0.00000000000000     0.00000000000000     0.00000000000000     0.00000000000000     0.00000000000000
    5     0.00000000000000     0.00000000000000     0.00000000000000     0.00000000000000     0.00000000000000
    6     0.00000000000000     0.00000000000000     0.00000000000000     0.00000000000000     0.00000000000000
    7     0.00000000000000     0.00000000000000     0.00000000000000     0.00000000000000     0.00000000000000
    8     0.00000000000000     0.00000000000000     0.00000000000000     0.00000000000000     0.00000000000000
    9     0.00000000000000     0.00000000000000     0.00000000000000     0.00000000000000     0.00000000000000
   10     0.00000000000000     0.00000000000000     0.00000000000000     0.00000000000000     0.00000000000000
   11    -0.00003446556693    -0.00012749787718     0.00031599256267     0.80437933135614    -0.56803487017151
   12    -0.48728630232025    -0.56241028413641     0.60619220133235    -0.00020232054452     0.00020049491497
   13    -0.67185091847802     0.00765754021648    -0.67259229949133     0.00010580769839    -0.00015335392242
   14     0.00004725846436    -0.00010200275378    -0.00000317686400    -0.23508324373081    -0.13279010862304
   15    -0.01077907105237    -0.30300650782872    -0.17269539779373    -0.00000280189618    -0.00005695009850
   16    -0.00996930173825     0.00124177455107     0.00056296449873     0.00000029902242     0.00000050129924
   17     0.37734076036420    -0.27863322812640    -0.19797725999240    -0.00003599752109    -0.00010371335615
   18     0.04719142379761    -0.05249074091234    -0.03561270962519    -0.00000768965564    -0.00002039077603
   19    -0.01401647164276     0.60398759757581     0.27033460659132     0.00020377777039     0.00037822445946
   20     0.00004663500892     0.00020507093377     0.00015138622290    -0.38317526981937    -0.63742663977402
   21    -0.00001269063954    -0.00005826434058    -0.00004226147225     0.10429761849071     0.24766208145898
   22     0.00020387622970    -0.00008203439195     0.00000737391756    -0.36460307566383    -0.43630716765982
   23     0.40760671974857    -0.38292126618228    -0.19178740953827     0.00029234236997     0.00036600547513
   24    -0.00002941059383     0.00004391355935     0.00003466725851    -0.08410051079119     0.04110530304474

                21                  22                  23                  24

    1     0.00000000000000     0.00000000000000     0.00000000000000     0.00000000000000
    2     0.00000000000000     0.00000000000000     0.00000000000000     0.00000000000000
    3     0.00000000000000     0.00000000000000     0.00000000000000     0.00000000000000
    4     0.00000000000000     0.00000000000000     0.00000000000000     0.00000000000000
    5     0.00000000000000     0.00000000000000     0.00000000000000     0.00000000000000
    6     0.00000000000000     0.00000000000000     0.00000000000000     0.00000000000000
    7     0.00000000000000     0.00000000000000     0.00000000000000     0.00000000000000
    8     0.00000000000000     0.00000000000000     0.00000000000000     0.00000000000000
    9     0.00000000000000     0.00000000000000     0.00000000000000     0.00000000000000
   10     0.00000000000000     0.00000000000000     0.00000000000000     0.00000000000000
   11     0.03701473991450     0.00321114934751     0.10797665636582    -0.13141841037833
   12    -0.00001974488521    -0.00000097872934    -0.00003896666928     0.00005139306172
   13     0.00002301772154     0.00000061081210     0.00002911001477    -0.00004320268523
   14     0.72772880771516     0.03536059633639     0.03737116755180    -0.62838399461988
   15    -0.00007719547171    -0.00000744832843     0.00000612885834     0.00006438225437
   16     0.00000011213668     0.00000006185572    -0.00000000885718    -0.00000007730532
   17    -0.00006417237385    -0.00001199620148     0.00001160071807     0.00005458792019
   18    -0.00001118919855    -0.00000247341686     0.00000219581068     0.00001006955035
   19     0.00006460086950     0.00007283832051    -0.00000827873654    -0.00016331918714
   20     0.11867973489324    -0.53232916600695    -0.05869739453269     0.38204602529399
   21    -0.29362180138851    -0.78352881663472     0.07670053445568    -0.47092604787554
   22    -0.60582642956264     0.31847101914159     0.07025780035897    -0.45090431578065
   23     0.00027726725324    -0.00011272122239     0.00004020254284     0.00017287414224
   24     0.04142818842806     0.00487452731217     0.98624536433199     0.12968222093376



  ## S_ao (Symmetry 0) ##
  Irrep: 1 Size: 24 x 24

                 1                   2                   3                   4                   5

    1     1.00000000000000    -0.00000000000000    -0.00000000000000     0.00000000000000    -0.00000000000000
    2    -0.00000000000000     1.00000000000000    -0.00000000000000     0.00000000000000    -0.00000000000000
    3    -0.00000000000000    -0.00000000000000     1.00000000000000    -0.00000000000000    -0.00000000000000
    4     0.00000000000000     0.00000000000000    -0.00000000000000     1.00000000000000    -0.00000000000000
    5    -0.00000000000000    -0.00000000000000    -0.00000000000000    -0.00000000000000     1.00000000000000
    6    -0.00000000000000     0.00000000000000    -0.00000000000000    -0.00000000000000     0.00000000000000
    7     0.00000000000000    -0.00000000000000    -0.00000000000000    -0.00000000000000    -0.00000000000000
    8     0.00000000000000    -0.00000000000000     0.00000000000000     0.00000000000000    -0.00000000000000
    9     0.00000000000000    -0.00000000000000     0.00000000000000    -0.00000000000000     0.00000000000000
   10    -0.00000000000000     0.00000000000000     0.00000000000000    -0.00000000000000     0.00000000000000
   11    -0.00000000000000     0.00000000000000    -0.00000000000000     0.00000000000000    -0.00000000000000
   12    -0.00000000000000     0.00000000000000     0.00000000000000    -0.00000000000000     0.00000000000000
   13     0.00000000000000    -0.00000000000000     0.00000000000000    -0.00000000000000     0.00000000000000
   14     0.00000000000000     0.00000000000000     0.00000000000000     0.00000000000000    -0.00000000000000
   15    -0.00000000000000     0.00000000000000     0.00000000000000    -0.00000000000000    -0.00000000000000
   16    -0.00000000000000     0.00000000000000    -0.00000000000000    -0.00000000000000     0.00000000000000
   17    -0.00000000000000     0.00000000000000    -0.00000000000000    -0.00000000000000    -0.00000000000000
   18    -0.00000000000000    -0.00000000000000    -0.00000000000000    -0.00000000000000     0.00000000000000
   19    -0.00000000000000    -0.00000000000000    -0.00000000000000    -0.00000000000000     0.00000000000000
   20     0.00000000000000    -0.00000000000000     0.00000000000000    -0.00000000000000     0.00000000000000
   21     0.00000000000000    -0.00000000000000     0.00000000000000     0.00000000000000    -0.00000000000000
   22    -0.00000000000000     0.00000000000000     0.00000000000000     0.00000000000000     0.00000000000000
   23    -0.00000000000000     0.00000000000000    -0.00000000000000    -0.00000000000000     0.00000000000000
   24    -0.00000000000000    -0.00000000000000    -0.00000000000000     0.00000000000000    -0.00000000000000

                 6                   7                   8                   9                  10

    1    -0.00000000000000     0.00000000000000     0.00000000000000     0.00000000000000    -0.00000000000000
    2     0.00000000000000    -0.00000000000000    -0.00000000000000    -0.00000000000000     0.00000000000000
    3    -0.00000000000000    -0.00000000000000     0.00000000000000     0.00000000000000     0.00000000000000
    4    -0.00000000000000    -0.00000000000000     0.00000000000000    -0.00000000000000    -0.00000000000000
    5     0.00000000000000    -0.00000000000000    -0.00000000000000     0.00000000000000     0.00000000000000
    6     1.00000000000000     0.00000000000000     0.00000000000000    -0.00000000000000    -0.00000000000000
    7     0.00000000000000     0.99999999999999     0.00000000000000    -0.00000000000000    -0.00000000000000
    8     0.00000000000000     0.00000000000000     1.00000000000000     0.00000000000000    -0.00000000000000
    9    -0.00000000000000    -0.00000000000000     0.00000000000000     1.00000000000000     0.00000000000000
   10    -0.00000000000000    -0.00000000000000    -0.00000000000000     0.00000000000000     1.00000000000000
   11     0.00000000000000     0.00000000000000     0.00000000000000    -0.00000000000000    -0.00000000000000
   12     0.00000000000000    -0.00000000000000     0.00000000000000    -0.00000000000000     0.00000000000000
   13    -0.00000000000000    -0.00000000000000    -0.00000000000000     0.00000000000000     0.00000000000000
   14     0.00000000000000    -0.00000000000000     0.00000000000000     0.00000000000000     0.00000000000000
   15     0.00000000000000    -0.00000000000000    -0.00000000000000     0.00000000000000     0.00000000000000
   16    -0.00000000000000    -0.00000000000000     0.00000000000000     0.00000000000000    -0.00000000000000
   17    -0.00000000000000    -0.00000000000000     0.00000000000000     0.00000000000000    -0.00000000000000
   18    -0.00000000000000     0.00000000000000    -0.00000000000000     0.00000000000000     0.00000000000000
   19     0.00000000000000     0.00000000000000     0.00000000000000    -0.00000000000000     0.00000000000000
   20     0.00000000000000     0.00000000000000     0.00000000000000    -0.00000000000000    -0.00000000000000
   21    -0.00000000000000     0.00000000000000     0.00000000000000     0.00000000000000    -0.00000000000000
   22     0.00000000000000    -0.00000000000000     0.00000000000000    -0.00000000000000    -0.00000000000000
   23     0.00000000000000     0.00000000000000     0.00000000000000    -0.00000000000000     0.00000000000000
   24    -0.00000000000000     0.00000000000000    -0.00000000000000     0.00000000000000     0.00000000000000

                11                  12                  13                  14                  15

    1    -0.00000000000000    -0.00000000000000     0.00000000000000     0.00000000000000    -0.00000000000000
    2     0.00000000000000     0.00000000000000    -0.00000000000000     0.00000000000000     0.00000000000000
    3     0.00000000000000    -0.00000000000000     0.00000000000000    -0.00000000000000     0.00000000000000
    4     0.00000000000000    -0.00000000000000    -0.00000000000000     0.00000000000000    -0.00000000000000
    5    -0.00000000000000     0.00000000000000     0.00000000000000    -0.00000000000000    -0.00000000000000
    6     0.00000000000000     0.00000000000000    -0.00000000000000     0.00000000000000     0.00000000000000
    7     0.00000000000000    -0.00000000000000    -0.00000000000000    -0.00000000000000    -0.00000000000000
    8     0.00000000000000     0.00000000000000    -0.00000000000000     0.00000000000000    -0.00000000000000
    9    -0.00000000000000    -0.00000000000000     0.00000000000000     0.00000000000000     0.00000000000000
   10    -0.00000000000000     0.00000000000000     0.00000000000000     0.00000000000000     0.00000000000000
   11     1.00000000000000    -0.00000000000000     0.00000000000000     0.00000000000000    -0.00000000000000
   12    -0.00000000000000     1.00000000000000    -0.00000000000000     0.00000000000000     0.00000000000000
   13     0.00000000000000    -0.00000000000000     1.00000000000000     0.00000000000000     0.00000000000000
   14     0.00000000000000     0.00000000000000     0.00000000000000     1.00000000000000    -0.00000000000000
   15    -0.00000000000000     0.00000000000000     0.00000000000000     0.00000000000000     1.00000000000000
   16    -0.00000000000000     0.00000000000000     0.00000000000000     0.00000000000000     0.00000000000000
   17     0.00000000000000     0.00000000000000     0.00000000000000    -0.00000000000000    -0.00000000000000
   18    -0.00000000000000     0.00000000000000    -0.00000000000000    -0.00000000000000    -0.00000000000000
   19     0.00000000000000    -0.00000000000000     0.00000000000000     0.00000000000000     0.00000000000000
   20    -0.00000000000000     0.00000000000000     0.00000000000000     0.00000000000000     0.00000000000000
   21    -0.00000000000000     0.00000000000000    -0.00000000000000     0.00000000000000     0.00000000000000
   22     0.00000000000000     0.00000000000000    -0.00000000000000     0.00000000000000     0.00000000000000
   23     0.00000000000000    -0.00000000000000     0.00000000000000    -0.00000000000000    -0.00000000000000
   24     0.00000000000000     0.00000000000000     0.00000000000000     0.00000000000000    -0.00000000000000

                16                  17                  18                  19                  20

    1    -0.00000000000000    -0.00000000000000    -0.00000000000000    -0.00000000000000     0.00000000000000
    2     0.00000000000000     0.00000000000000    -0.00000000000000    -0.00000000000000    -0.00000000000000
    3    -0.00000000000000    -0.00000000000000    -0.00000000000000    -0.00000000000000     0.00000000000000
    4    -0.00000000000000    -0.00000000000000    -0.00000000000000    -0.00000000000000    -0.00000000000000
    5     0.00000000000000    -0.00000000000000     0.00000000000000     0.00000000000000     0.00000000000000
    6    -0.00000000000000    -0.00000000000000    -0.00000000000000     0.00000000000000     0.00000000000000
    7    -0.00000000000000    -0.00000000000000     0.00000000000000     0.00000000000000     0.00000000000000
    8     0.00000000000000     0.00000000000000    -0.00000000000000     0.00000000000000     0.00000000000000
    9     0.00000000000000     0.00000000000000     0.00000000000000    -0.00000000000000    -0.00000000000000
   10    -0.00000000000000    -0.00000000000000     0.00000000000000     0.00000000000000    -0.00000000000000
   11    -0.00000000000000     0.00000000000000    -0.00000000000000     0.00000000000000    -0.00000000000000
   12     0.00000000000000     0.00000000000000     0.00000000000000    -0.00000000000000     0.00000000000000
   13     0.00000000000000     0.00000000000000    -0.00000000000000     0.00000000000000     0.00000000000000
   14     0.00000000000000    -0.00000000000000    -0.00000000000000     0.00000000000000     0.00000000000000
   15    -0.00000000000000     0.00000000000000    -0.00000000000000     0.00000000000000     0.00000000000000
   16     1.00000000000000     0.00000000000000    -0.00000000000000    -0.00000000000000    -0.00000000000000
   17     0.00000000000000     1.00000000000000    -0.00000000000000     0.00000000000000     0.00000000000000
   18    -0.00000000000000    -0.00000000000000     1.00000000000000    -0.00000000000000    -0.00000000000000
   19    -0.00000000000000     0.00000000000000    -0.00000000000000     1.00000000000000     0.00000000000000
   20    -0.00000000000000     0.00000000000000    -0.00000000000000     0.00000000000000     1.00000000000000
   21     0.00000000000000     0.00000000000000    -0.00000000000000     0.00000000000000    -0.00000000000000
   22     0.00000000000000    -0.00000000000000    -0.00000000000000    -0.00000000000000     0.00000000000000
   23    -0.00000000000000    -0.00000000000000     0.00000000000000    -0.00000000000000    -0.00000000000000
   24     0.00000000000000     0.00000000000000     0.00000000000000    -0.00000000000000    -0.00000000000000

                21                  22                  23                  24

    1     0.00000000000000    -0.00000000000000    -0.00000000000000    -0.00000000000000
    2    -0.00000000000000     0.00000000000000     0.00000000000000    -0.00000000000000
    3     0.00000000000000     0.00000000000000    -0.00000000000000    -0.00000000000000
    4     0.00000000000000     0.00000000000000    -0.00000000000000     0.00000000000000
    5    -0.00000000000000     0.00000000000000     0.00000000000000    -0.00000000000000
    6    -0.00000000000000     0.00000000000000     0.00000000000000    -0.00000000000000
    7     0.00000000000000    -0.00000000000000     0.00000000000000     0.00000000000000
    8     0.00000000000000    -0.00000000000000     0.00000000000000    -0.00000000000000
    9     0.00000000000000    -0.00000000000000    -0.00000000000000     0.00000000000000
   10    -0.00000000000000    -0.00000000000000     0.00000000000000     0.00000000000000
   11    -0.00000000000000     0.00000000000000     0.00000000000000     0.00000000000000
   12     0.00000000000000     0.00000000000000    -0.00000000000000     0.00000000000000
   13    -0.00000000000000    -0.00000000000000     0.00000000000000     0.00000000000000
   14     0.00000000000000     0.00000000000000    -0.00000000000000     0.00000000000000
   15     0.00000000000000     0.00000000000000    -0.00000000000000    -0.00000000000000
   16     0.00000000000000     0.00000000000000    -0.00000000000000     0.00000000000000
   17     0.00000000000000    -0.00000000000000    -0.00000000000000     0.00000000000000
   18    -0.00000000000000    -0.00000000000000     0.00000000000000     0.00000000000000
   19     0.00000000000000    -0.00000000000000    -0.00000000000000    -0.00000000000000
   20    -0.00000000000000     0.00000000000000    -0.00000000000000    -0.00000000000000
   21     1.00000000000000    -0.00000000000000     0.00000000000000     0.00000000000000
   22    -0.00000000000000     1.00000000000000    -0.00000000000000    -0.00000000000000
   23     0.00000000000000    -0.00000000000000     1.00000000000000    -0.00000000000000
   24     0.00000000000000    -0.00000000000000    -0.00000000000000     1.00000000000000



  ## C (Symmetry 0) ##
  Irrep: 1 Size: 24 x 24

                 1                   2                   3                   4                   5

    1     0.24368151400583     0.98436390976324     0.00077091997405    -0.11002577474774    -0.04501924416000
    2     0.00496499919706    -0.08430146944285    -0.47729094014050     0.03148953831287     0.13143277382342
    3     0.01336198969748    -0.00272169147291    -0.08058772180834     0.12034556877184    -0.49750670695817
    4    -0.08500756747963    -0.02634212441175     0.00787156528324    -0.51241215071068    -0.17699454745923
    5     0.61369643007284    -0.16245140826327     0.02630434608160    -0.09013741934780    -0.00881583057279
    6     0.01160648621509    -0.11458583599608    -0.49918317126092     0.11877727794289     0.21885572730809
    7     0.00072007794661    -0.00321055777928    -0.03705414644385     0.02965711112225    -0.30455418744102
    8    -0.05714867745828    -0.01699188556676     0.01692991692056    -0.33740082298928    -0.16335074363526
    9     0.48749539162589    -0.12900803660889     0.02101345725193    -0.07154195644292    -0.00692039853687
   10    -0.05018383201677    -0.03706146532084    -0.07531105657773    -0.30608554275076     0.08056520945489
   11    -0.02140802848741     0.00118383072389     0.03703793584801    -0.13832914563261     0.02887647387893
   12     0.00425285017840    -0.02619121428450    -0.15164282068010     0.05823364653977    -0.28523767120050
   13     0.00403726330923     0.00593485611973    -0.00047106894569     0.03294313814883    -0.14509943003922
   14    -0.00000000041952     0.00000000108334     0.00000000065997     0.00000000116875    -0.00000026182049
   15     0.00000000314359    -0.00000001373771    -0.00000000334760    -0.00000007742052     0.00000100918718
   16     0.00000000016618    -0.00000000642274    -0.00000000132764     0.00000012259904    -0.00000057548012
   17     0.00000000368507     0.00000000185452    -0.00000000844972     0.00000010899346    -0.00000122564746
   18    -0.00000000089822     0.00000000175710    -0.00000000341835     0.00000008933260    -0.00000124074985
   19    -0.00000000404722     0.00000001664581     0.00000000268768     0.00000013350106     0.00000128177726
   20     0.00000000509846     0.00000000448431    -0.00000000885155    -0.00000002793488     0.00000375865082
   21    -0.00000000408312    -0.00000000205448     0.00000000936241    -0.00000012076528     0.00000135764843
   22     0.00000000099534    -0.00000000194577     0.00000000378780    -0.00000009898794     0.00000137345641
   23    -0.00000001687530     0.00000001249368     0.00000002400718    -0.00000003267773    -0.00000011311089
   24     0.00000001114712    -0.00000001445341    -0.00000001142036    -0.00000011033023    -0.00000506567775

                 6                   7                   8                   9                  10

    1     0.00000133087090     0.00000014544242     0.00000001025087     0.00000000200052    -0.00000000007658
    2     0.00000774895718     0.00000010275165    -0.00000033680872     0.00000008745063    -0.00000000281870
    3    -0.00000185143930    -0.00000033002189    -0.00000021322237     0.00000004927765    -0.00000000164470
    4    -0.00000098922793    -0.00000006814726     0.00000000827797     0.00000000414360     0.00000000015931
    5    -0.00000003095526     0.00000000037149    -0.00000000402515     0.00000000014297    -0.00000000000250
    6    -0.00004254338779    -0.00000263050762     0.00000067828621    -0.00000024035813     0.00000000783458
    7    -0.00003357549500    -0.00000167283626    -0.00000031162594    -0.00000018704056     0.00000000603404
    8    -0.00000040900937    -0.00000021153149     0.00000045026665     0.00000000485105    -0.00000000022324
    9     0.00000004500445     0.00000000073274     0.00000000282822     0.00000000035726     0.00000000001301
   10     0.00000300026795     0.00000004045085     0.00000006826890     0.00000002191163    -0.00000000087179
   11    -0.00001465904498    -0.00000030085994    -0.00000120248146    -0.00000010343961     0.00000000315042
   12    -0.00000641557526    -0.00000008065733     0.00000005995292    -0.00000005332755     0.00000000154096
   13     0.00007471651108     0.00000439198939     0.00000051896222     0.00000037852272    -0.00000001189268
   14    -0.05962073260849     0.20261247574156     0.10759151140041    -0.02289023850531    -0.99591164771260
   15     0.13587916555329    -0.43714679174761    -0.24348902710722     0.04867204152723    -0.02006536304865
   16    -0.24514185094142    -0.21559610585065     0.36495346695734    -0.17985505237847    -0.00042696767316
   17    -0.40103810375201     0.06061935831800    -0.40075592285052    -0.33925078518368     0.00085447314262
   18    -0.40566821903199    -0.04501528708027    -0.04211031114512     0.52134211375770    -0.00136457207364
   19     0.16633640730307    -0.46566785272652    -0.29229441507981     0.06551048301207     0.00567629318051
   20    -0.18140287750273    -0.17292174604309     0.26895346515217    -0.13422497958886     0.00148644903017
   21    -0.29434043477373     0.04451385991967    -0.29407660445218    -0.24893003817609     0.00062564660394
   22    -0.29778833574938    -0.03290707351841    -0.03087549996049     0.38259748077977    -0.00100631026134
   23    -0.10960133746433    -0.14725191048618     0.15937724401104    -0.08504432886068     0.00007893899025
   24    -0.09895541720263    -0.08014796999916     0.14817307678261    -0.07225715039895    -0.00077785411356

                11                  12                  13                  14                  15

    1    -0.05542428640743     0.02229202463095     0.00078649220719     0.03336870245506    -0.06931935729720
    2     0.15340817868332    -0.20952923838718     0.16675088417058    -1.23221598208996     0.42037262499329
    3    -0.07835809599994     0.09600809207804    -0.20895060575229     0.36409162915626    -0.54673374864249
    4    -0.36151183369682     0.15858348591275    -0.84706221256072    -0.16241492872261     0.43255014895560
    5     0.27741915809675     0.91103378899088     0.08452757197199    -0.09654312435086     0.02606461482864
    6     0.32703265606551     0.14562044201039    -0.24776365871538     1.96016949574921    -0.08114872211349
    7    -0.27776422626378     0.01311905353065     0.63013332439166     0.22045756500154     1.18401994010676
    8     1.15471251947990    -0.32450890851152     0.46388585897795     0.53455297075720    -0.25009268391789
    9    -0.29929164665517    -0.98310847589386    -0.09119149126464     0.10442535683290    -0.02810669161744
   10    -1.16788779629628     0.26341062745980     0.70501600263612    -0.33103067633894    -0.25280849047092
   11     0.06459403348676    -0.05965356725361    -0.20138665179359    -0.32487245994660     0.31250128173035
   12    -0.01474338355947    -0.05233751028800    -0.27728444362521    -1.01913169158289    -0.88431877346397
   13    -0.00346945695888     0.00336838683972     0.01194631270394     0.00658330012130    -0.02763420003292
   14     0.00000000009052     0.00000000002257    -0.00000000036505    -0.00000000014945     0.00000000016016
   15    -0.00000000018351    -0.00000000001947     0.00000000069977     0.00000000033579    -0.00000000025693
   16    -0.00000000025746     0.00000000002203    -0.00000000188768    -0.00000000145904     0.00000000072490
   17    -0.00000000073350     0.00000000086758    -0.00000000213849     0.00000000037815     0.00000000110691
   18     0.00000000088366    -0.00000000087421     0.00000000413775     0.00000000110968    -0.00000000189268
   19    -0.00000000018468    -0.00000000002286     0.00000000089685     0.00000000046780    -0.00000000033200
   20    -0.00000000019826     0.00000000001603    -0.00000000140421    -0.00000000109055     0.00000000053944
   21    -0.00000000053821     0.00000000063662    -0.00000000156913     0.00000000027755     0.00000000081221
   22     0.00000000064856    -0.00000000064154     0.00000000303654     0.00000000081440    -0.00000000138897
   23    -0.00000000014489     0.00000000000914    -0.00000000087528    -0.00000000069540     0.00000000033714
   24    -0.00000000010026     0.00000000000926    -0.00000000076044    -0.00000000058456     0.00000000029198

                16                  17                  18                  19                  20

    1     0.00231406055957    -0.08564080804422     0.02847232003887    -0.00000096218344    -0.00000030517759
    2    -0.74544233775867     0.78854138147958     0.32160747180291    -0.00002862516028    -0.00001274758687
    3    -0.30701202089779     0.75816326511997     0.06716297054796    -0.00001820502075    -0.00000701389448
    4    -0.05590948498035     0.00393423840202    -0.02264970125461    -0.00000005466326     0.00000046594864
    5    -0.00691853818215    -0.00107005129811    -0.00058336931658    -0.00000001962769     0.00000001614156
    6     1.77446553849607    -0.44397935781335    -1.26692887712228     0.00008201346651     0.00003523184796
    7    -0.14350740218828    -0.65860477147298    -0.97047691695034     0.00005747132666     0.00002586848791
    8     0.79316750687013     0.26681021605001    -0.00144867812430    -0.00000158568972    -0.00000035863934
    9     0.00734298502482     0.00090241213138     0.00086465593845    -0.00000007517918     0.00000001947576
   10     0.10910638336535     0.23504890832807     0.10179609658710    -0.00000722573015    -0.00000331027055
   11    -1.86724657096920    -0.84844867996210    -0.43816909576566     0.00002784395211     0.00001240973989
   12     0.12767993088571    -0.45363338828806    -0.21472923314662     0.00001466810020     0.00000694499233
   13    -0.02807306969122     0.51481220901149     2.08172572560510    -0.00011968830206    -0.00005207273064
   14    -0.00000009145749     0.00000027356590     0.00000334054493     0.05621381291093     0.00515525286330
   15     0.00000020704780    -0.00000059025620    -0.00000761329890    -0.21667604318714    -0.35170821290002
   16    -0.00000031323070    -0.00000029009250     0.00001373527863     0.12355713555242     0.55839196040260
   17     0.00000034339986     0.00000008094163     0.00002247013278     0.26314950301720     0.49875287267446
   18     0.00000003587505    -0.00000006080814     0.00002272955793     0.26639237114145     0.40853623107628
   19     0.00000024874549    -0.00000062883561    -0.00000931981575    -0.27520237851828     0.60728798264866
   20    -0.00000023088294    -0.00000023272233     0.00001016398896    -0.80699572545221    -0.12476599449461
   21     0.00000025198855     0.00000005943729     0.00001649187095    -0.29149043368006    -0.55262058818635
   22     0.00000002630407    -0.00000004445213     0.00001668505668    -0.29488482921685    -0.45269193858636
   23    -0.00000013696628    -0.00000019832106     0.00000614095432     0.02428583394665    -0.15472700021551
   24    -0.00000012714878    -0.00000010781588     0.00000554446424     1.08761920896562    -0.49969879955888

                21                  22                  23                  24

    1     0.00000001822842     0.00000000387963     0.00000014054045    -0.00000007304528
    2     0.00000098208605     0.00000015403321     0.00000579547207    -0.00000306890613
    3     0.00000074928772     0.00000006761481     0.00000295584032    -0.00000153589649
    4    -0.00000015930058     0.00000000432296    -0.00000004989743     0.00000001629143
    5    -0.00000000145582     0.00000000027138    -0.00000000544628     0.00000000328501
    6    -0.00000269839515    -0.00000042779871    -0.00001605975211     0.00000850180697
    7    -0.00000277197376    -0.00000025177800    -0.00001097076308     0.00000570644860
    8     0.00000050737941    -0.00000002717054    -0.00000021121025     0.00000015195776
    9     0.00000002752145     0.00000000218964     0.00000001275521    -0.00000001551590
   10     0.00000044978172     0.00000002513965     0.00000132927083    -0.00000067609524
   11    -0.00000225833787    -0.00000005304417    -0.00000437748271     0.00000217268390
   12    -0.00000079382747    -0.00000007035759    -0.00000299930492     0.00000158019523
   13     0.00000537403015     0.00000053548121     0.00002248315693    -0.00001177867115
   14     0.05543474451724    -0.02134147328727     0.08915040173208     0.03080509553877
   15    -0.61264752948206     0.24141722407569    -1.27163809519789    -0.46190381896168
   16     0.22138319220968    -0.26281726676821    -0.63229921622455     0.51822298440779
   17    -0.29728732147874    -0.39809917458368     0.09015666619570    -0.56504786192501
   18     0.03624166357299     0.80214899158598     0.01208769555718    -0.09767478486570
   19     0.72985134472586    -0.22261901827963     1.41689526555906     0.40676566263462
   20    -0.48646717291628     0.30312619189818     0.84775337011480    -0.30827742699928
   21     0.32940881917300     0.44110649923218    -0.09985186848924     0.62609778034093
   22    -0.04012802595050    -0.88880702953055    -0.01322889447056     0.10830210455393
   23     1.09648515910946    -0.06070539196656    -0.35826296022404    -0.71653372555153
   24    -0.87781269113039    -0.00349663338256    -0.26428031180347     0.48750908676258



  ## DF (Symmetry 0) ##
  Irrep: 1 Size: 24 x 24

                 1                   2                   3                   4                   5

    1     1.04248598488553    -0.09152306363174     0.00967106980345     0.01770776364193    -0.00003022819216
    2    -0.09152306363174     0.25320419562571    -0.02283948574261    -0.04135691588619     0.00018999385519
    3     0.00967106980345    -0.02283948574261     0.26867631067437     0.02469091611625     0.00006083650267
    4     0.01770776364193    -0.04135691588619     0.02469091611625     0.30187543761456     0.00006539374358
    5    -0.00003022819216     0.00018999385519     0.00006083650267     0.00006539374358     0.41190816018901
    6    -0.13327198717743     0.28047804228153    -0.05389288546234    -0.10149674855114    -0.00002886963593
    7     0.00743429934590    -0.02113467484100     0.15809132192031     0.03843945322731     0.00000046646183
    8     0.01383749041468    -0.03902603566708     0.03858167979475     0.20723940967204    -0.00001374125644
    9     0.00000196978505     0.00010405816298     0.00000478907406     0.00000679772560     0.32719408038394
   10    -0.01871858571803     0.03977087484763    -0.07141831028773     0.14723181578948     0.00012155226813
   11     0.00989690710153    -0.01844456671987    -0.03428761785801     0.06785076294769    -0.00014202483606
   12    -0.01842826732568     0.03895098996561     0.16126447621780     0.01978062588558     0.00014146974498
   13     0.00973317392413    -0.01828889092286     0.07622825557469     0.00829810091076    -0.00018910028376
   14    -0.00000003612262    -0.00000051139548     0.00000015142306     0.00000009156238     0.00000000327372
   15     0.00000006518683     0.00000122730029    -0.00000056400070    -0.00000024532334    -0.00000000122696
   16    -0.00000034809187    -0.00000213099373     0.00000073952448     0.00000029864943     0.00000000114665
   17    -0.00000048379753    -0.00000314985352     0.00000141483308     0.00000054851875     0.00000001672005
   18    -0.00000049829092    -0.00000324713559     0.00000142888858     0.00000058001144     0.00000001474431
   19     0.00000009378694     0.00000151521106    -0.00000071068110    -0.00000043030632    -0.00000003258667
   20    -0.00000042457388    -0.00000102877696    -0.00000154358584    -0.00000045866435    -0.00000002400070
   21    -0.00000043961063    -0.00000202865985    -0.00000011007733     0.00000010673070     0.00000000726694
   22    -0.00000045326557    -0.00000209130876    -0.00000010786760     0.00000010577744     0.00000000722579
   23    -0.00000014892609    -0.00000095403441     0.00000026348950     0.00000015748133    -0.00000000512742
   24     0.00000008669289    -0.00000149380505     0.00000268254686     0.00000105675351     0.00000006591823

                 6                   7                   8                   9                  10

    1    -0.13327198717743     0.00743429934590     0.01383749041468     0.00000196978505    -0.01871858571803
    2     0.28047804228153    -0.02113467484100    -0.03902603566708     0.00010405816298     0.03977087484763
    3    -0.05389288546234     0.15809132192031     0.03858167979475     0.00000478907406    -0.07141831028773
    4    -0.10149674855114     0.03843945322731     0.20723940967204     0.00000679772560     0.14723181578948
    5    -0.00002886963593     0.00000046646183    -0.00001374125644     0.32719408038394     0.00012155226813
    6     0.32445433575175    -0.04425778748161    -0.08299319265861    -0.00006108966427     0.02253442288365
    7    -0.04425778748161     0.09501663442040     0.03912889761675    -0.00002750468667    -0.03074064633229
    8    -0.08299319265861     0.03912889761675     0.14436409839773    -0.00004310378835     0.09233580102859
    9    -0.00006108966427    -0.00002750468667    -0.00004310378835     0.25990253919944     0.00007470957438
   10     0.02253442288365    -0.03074064633229     0.09233580102859     0.00007470957438     0.10974283691502
   11    -0.02898341355617    -0.01428851869377     0.04378574827935    -0.00011424282374     0.04290808706344
   12     0.02323898326519     0.09430351519708     0.02458039843501     0.00007339142246    -0.02862706854261
   13    -0.02824099052585     0.04516894280981     0.01224751403061    -0.00016006633251    -0.02216046717666
   14     0.00000201655088     0.00000170734680     0.00000007247365    -0.00000000085370    -0.00000018449067
   15    -0.00000459290095    -0.00000407376030    -0.00000021123257     0.00000000691259     0.00000048005837
   16     0.00001117707669     0.00000869029537     0.00000036204191    -0.00000001412927    -0.00000080679765
   17     0.00001646053525     0.00001392880964     0.00000013216328    -0.00000001719468    -0.00000136728628
   18     0.00001696359115     0.00001399206206     0.00000033151287    -0.00000001676365    -0.00000133745174
   19    -0.00000577244703    -0.00000511354081    -0.00000035525232    -0.00000001614383     0.00000052348069
   20     0.00000921031418     0.00000517603873    -0.00000037384739    -0.00000002986980    -0.00000022422178
   21     0.00001254381379     0.00000952896476    -0.00000020324851    -0.00000001641905    -0.00000076091115
   22     0.00001292975122     0.00000957013222    -0.00000007420309    -0.00000001498380    -0.00000074781106
   23     0.00000513645680     0.00000392502607     0.00000017798687    -0.00000001083342    -0.00000032630766
   24     0.00000342432286     0.00000496386619     0.00000098791750     0.00000004588962    -0.00000066511236

                11                  12                  13                  14                  15

    1     0.00989690710153    -0.01842826732568     0.00973317392413    -0.00000003612262     0.00000006518683
    2    -0.01844456671987     0.03895098996561    -0.01828889092286    -0.00000051139548     0.00000122730029
    3    -0.03428761785801     0.16126447621780     0.07622825557469     0.00000015142306    -0.00000056400070
    4     0.06785076294769     0.01978062588558     0.00829810091076     0.00000009156238    -0.00000024532334
    5    -0.00014202483606     0.00014146974498    -0.00018910028376     0.00000000327372    -0.00000000122696
    6    -0.02898341355617     0.02323898326519    -0.02824099052585     0.00000201655088    -0.00000459290095
    7    -0.01428851869377     0.09430351519708     0.04516894280981     0.00000170734680    -0.00000407376030
    8     0.04378574827935     0.02458039843501     0.01224751403061     0.00000007247365    -0.00000021123257
    9    -0.00011424282374     0.00007339142246    -0.00016006633251    -0.00000000085370     0.00000000691259
   10     0.04290808706344    -0.02862706854261    -0.02216046717666    -0.00000018449067     0.00000048005837
   11     0.02180031732235    -0.02203065680672    -0.00884380855753     0.00000067519103    -0.00000153300190
   12    -0.02203065680672     0.10845129820653     0.04323938511135     0.00000044691445    -0.00000114519414
   13    -0.00884380855753     0.04323938511135     0.02219084446920    -0.00000346773284     0.00000797572338
   14     0.00000067519103     0.00000044691445    -0.00000346773284     1.04854635347684    -0.10400074743449
   15    -0.00000153300190    -0.00000114519414     0.00000797572338    -0.10400074743449     0.27161895791003
   16     0.00000320452548     0.00000179324425    -0.00001905421290     0.01474111820462    -0.03667003408853
   17     0.00000632673489     0.00000291926333    -0.00002985286862    -0.00001095999497     0.00005821524325
   18     0.00000590866603     0.00000293547646    -0.00003014933484    -0.00003978647269     0.00021199356860
   19    -0.00000193475994    -0.00000140929055     0.00001007440167    -0.14286824994476     0.30041197488900
   20     0.00000251366458     0.00000012854689    -0.00001477075576     0.00630844908305    -0.02110673260111
   21     0.00000473707130     0.00000148474951    -0.00002224443921     0.00000268858456     0.00002211561487
   22     0.00000442621152     0.00000149283693    -0.00002246798045     0.00000948192222     0.00008182894293
   23     0.00000147062143     0.00000075544407    -0.00000876990923    -0.00428485482948     0.00653068683671
   24     0.00000117230589     0.00000209471092    -0.00000696470112     0.00803163850149    -0.01798936498031

                16                  17                  18                  19                  20

    1    -0.00000034809187    -0.00000048379753    -0.00000049829092     0.00000009378694    -0.00000042457388
    2    -0.00000213099373    -0.00000314985352    -0.00000324713559     0.00000151521106    -0.00000102877696
    3     0.00000073952448     0.00000141483308     0.00000142888858    -0.00000071068110    -0.00000154358584
    4     0.00000029864943     0.00000054851875     0.00000058001144    -0.00000043030632    -0.00000045866435
    5     0.00000000114665     0.00000001672005     0.00000001474431    -0.00000003258667    -0.00000002400070
    6     0.00001117707669     0.00001646053525     0.00001696359115    -0.00000577244703     0.00000921031418
    7     0.00000869029537     0.00001392880964     0.00001399206206    -0.00000511354081     0.00000517603873
    8     0.00000036204191     0.00000013216328     0.00000033151287    -0.00000035525232    -0.00000037384739
    9    -0.00000001412927    -0.00000001719468    -0.00000001676365    -0.00000001614383    -0.00000002986980
   10    -0.00000080679765    -0.00000136728628    -0.00000133745174     0.00000052348069    -0.00000022422178
   11     0.00000320452548     0.00000632673489     0.00000590866603    -0.00000193475994     0.00000251366458
   12     0.00000179324425     0.00000291926333     0.00000293547646    -0.00000140929055     0.00000012854689
   13    -0.00001905421290    -0.00002985286862    -0.00003014933484     0.00001007440167    -0.00001477075576
   14     0.01474111820462    -0.00001095999497    -0.00003978647269    -0.14286824994476     0.00630844908305
   15    -0.03667003408853     0.00005821524325     0.00021199356860     0.30041197488900    -0.02110673260111
   16     0.27211526315294     0.00000026491825     0.00001764408470    -0.05883851420108     0.20404659784498
   17     0.00000026491825     0.44020340233728    -0.00003131533006    -0.00001663829308     0.00001956643654
   18     0.00001764408470    -0.00003131533006     0.44016581994408    -0.00006098529722     0.00006862723380
   19    -0.05883851420108    -0.00001663829308    -0.00006098529722     0.33427421823467    -0.03704810624882
   20     0.20404659784498     0.00001956643654     0.00006862723380    -0.03704810624882     0.15316345532870
   21     0.00000492570947     0.32304331795335     0.00000584707232    -0.00003523060449     0.00001742495547
   22     0.00001523968089     0.00000584765710     0.32305031461272    -0.00012610578448     0.00005030202682
   23     0.13207570948488     0.00000804450838     0.00004164317244    -0.00181613703909     0.09962530815063
   24     0.10861012813012    -0.00004223340979    -0.00015829670690    -0.02718573445773     0.08135934505996

                21                  22                  23                  24

    1    -0.00000043961063    -0.00000045326557    -0.00000014892609     0.00000008669289
    2    -0.00000202865985    -0.00000209130876    -0.00000095403441    -0.00000149380505
    3    -0.00000011007733    -0.00000010786760     0.00000026348950     0.00000268254686
    4     0.00000010673070     0.00000010577744     0.00000015748133     0.00000105675351
    5     0.00000000726694     0.00000000722579    -0.00000000512742     0.00000006591823
    6     0.00001254381379     0.00001292975122     0.00000513645680     0.00000342432286
    7     0.00000952896476     0.00000957013222     0.00000392502607     0.00000496386619
    8    -0.00000020324851    -0.00000007420309     0.00000017798687     0.00000098791750
    9    -0.00000001641905    -0.00000001498380    -0.00000001083342     0.00000004588962
   10    -0.00000076091115    -0.00000074781106    -0.00000032630766    -0.00000066511236
   11     0.00000473707130     0.00000442621152     0.00000147062143     0.00000117230589
   12     0.00000148474951     0.00000149283693     0.00000075544407     0.00000209471092
   13    -0.00002224443921    -0.00002246798045    -0.00000876990923    -0.00000696470112
   14     0.00000268858456     0.00000948192222    -0.00428485482948     0.00803163850149
   15     0.00002211561487     0.00008182894293     0.00653068683671    -0.01798936498031
   16     0.00000492570947     0.00001523968089     0.13207570948488     0.10861012813012
   17     0.32304331795335     0.00000584765710     0.00000804450838    -0.00004223340979
   18     0.00000584707232     0.32305031461272     0.00004164317244    -0.00015829670690
   19    -0.00003523060449    -0.00012610578448    -0.00181613703909    -0.02718573445773
   20     0.00001742495547     0.00005030202682     0.09962530815063     0.08135934505996
   21     0.23706537989574     0.00002545445389     0.00000637307675    -0.00002886173955
   22     0.00002545445389     0.23709590985501     0.00002495181837    -0.00011433463841
   23     0.00000637307675     0.00002495181837     0.06632922832710     0.05240800385158
   24    -0.00002886173955    -0.00011433463841     0.05240800385158     0.04339283323843



   => Loading Basis Set <=

    Role: BASIS
    Keyword: BASIS
    Name: 6-31G
    atoms 1      entry O          line   112 file /Users/kevinhannon/Programs/psi4cmake/psi4/lib/basis/6-31g.gbs
    atoms 2-3, 5 entry H          line    21 file /Users/kevinhannon/Programs/psi4cmake/psi4/lib/basis/6-31g.gbs
    atoms 4      entry F          line   127 file /Users/kevinhannon/Programs/psi4cmake/psi4/lib/basis/6-31g.gbs

   => Loading Basis Set <=

    Role: BASIS
    Keyword: BASIS
    Name: 6-31G
    atoms 1      entry O          line   112 file /Users/kevinhannon/Programs/psi4cmake/psi4/lib/basis/6-31g.gbs
    atoms 2-3, 5 entry H          line    21 file /Users/kevinhannon/Programs/psi4cmake/psi4/lib/basis/6-31g.gbs
    atoms 4      entry F          line   127 file /Users/kevinhannon/Programs/psi4cmake/psi4/lib/basis/6-31g.gbs

   => Loading Basis Set <=

    Role: BASIS
    Keyword: BASIS
    Name: 6-31G
    atoms 1      entry O          line   112 file /Users/kevinhannon/Programs/psi4cmake/psi4/lib/basis/6-31g.gbs
    atoms 2-3, 5 entry H          line    21 file /Users/kevinhannon/Programs/psi4cmake/psi4/lib/basis/6-31g.gbs
    atoms 4      entry F          line   127 file /Users/kevinhannon/Programs/psi4cmake/psi4/lib/basis/6-31g.gbs

   => Loading Basis Set <=

    Role: BASIS
    Keyword: BASIS
    Name: 6-31G
    atoms 1      entry O          line   112 file /Users/kevinhannon/Programs/psi4cmake/psi4/lib/basis/6-31g.gbs
    atoms 2-3, 5 entry H          line    21 file /Users/kevinhannon/Programs/psi4cmake/psi4/lib/basis/6-31g.gbs
    atoms 4      entry F          line   127 file /Users/kevinhannon/Programs/psi4cmake/psi4/lib/basis/6-31g.gbs

 MINTS: Wrapper to libmints.
   by Justin Turney

   Calculation information:
      Number of atoms:                   5
      Number of AO shells:              16
      Number of SO shells:              16
      Number of primitives:             40
      Number of atomic orbitals:        24
      Number of basis functions:        24

      Number of irreps:                  1
      Integral cutoff                 1.00e-12
      Number of functions per irrep: [  24 ]

 OEINTS: Overlap, kinetic, potential, dipole, and quadrupole integrals
         stored in file 35.

      Computing two-electron integrals...done
      Computed 15853 non-zero two-electron integrals.
        Stored in file 33.

	Batch   1 pq = [       0,     300] index = [             0,45150]
   => Loading Basis Set <=

    Role: BASIS
    Keyword: BASIS
    Name: 6-31G
    atoms 1      entry O          line   112 file /Users/kevinhannon/Programs/psi4cmake/psi4/lib/basis/6-31g.gbs
    atoms 2-3, 5 entry H          line    21 file /Users/kevinhannon/Programs/psi4cmake/psi4/lib/basis/6-31g.gbs
    atoms 4      entry F          line   127 file /Users/kevinhannon/Programs/psi4cmake/psi4/lib/basis/6-31g.gbs

 MINTS: Wrapper to libmints.
   by Justin Turney

   Calculation information:
      Number of atoms:                   5
      Number of AO shells:              16
      Number of SO shells:              16
      Number of primitives:             40
      Number of atomic orbitals:        24
      Number of basis functions:        24

      Number of irreps:                  1
      Integral cutoff                 1.00e-12
      Number of functions per irrep: [  24 ]

 OEINTS: Overlap, kinetic, potential, dipole, and quadrupole integrals
         stored in file 35.

      Computing two-electron integrals...done
      Computed 15853 non-zero two-electron integrals.
        Stored in file 33.

	Batch   1 pq = [       0,     300] index = [             0,45150]
   => Loading Basis Set <=

    Role: BASIS
    Keyword: BASIS
    Name: 6-31G
    atoms 1      entry O          line   112 file /Users/kevinhannon/Programs/psi4cmake/psi4/lib/basis/6-31g.gbs
    atoms 2-3, 5 entry H          line    21 file /Users/kevinhannon/Programs/psi4cmake/psi4/lib/basis/6-31g.gbs
    atoms 4      entry F          line   127 file /Users/kevinhannon/Programs/psi4cmake/psi4/lib/basis/6-31g.gbs

 MINTS: Wrapper to libmints.
   by Justin Turney

   Calculation information:
      Number of atoms:                   5
      Number of AO shells:              16
      Number of SO shells:              16
      Number of primitives:             40
      Number of atomic orbitals:        24
      Number of basis functions:        24

      Number of irreps:                  1
      Integral cutoff                 1.00e-12
      Number of functions per irrep: [  24 ]

 OEINTS: Overlap, kinetic, potential, dipole, and quadrupole integrals
         stored in file 35.

      Computing two-electron integrals...done
      Computed 15853 non-zero two-electron integrals.
        Stored in file 33.

	Batch   1 pq = [       0,     300] index = [             0,45150]
  ==> DiskJK: Disk-Based J/K Matrices <==

    J tasked:                  Yes
    K tasked:                  Yes
    wK tasked:                  No
    Memory (MB):              7629
    Schwarz Cutoff:          1E-12

  ==> DiskJK: Disk-Based J/K Matrices <==

    J tasked:                  Yes
    K tasked:                  Yes
    wK tasked:                  No
    Memory (MB):              7629
    Schwarz Cutoff:          1E-12

  ==> DiskJK: Disk-Based J/K Matrices <==

    J tasked:                  Yes
    K tasked:                  Yes
    wK tasked:                  No
    Memory (MB):              7629
    Schwarz Cutoff:          1E-12

  ## C (Symmetry 0) ##
  Irrep: 1 Size: 24 x 24

                 1                   2                   3                   4                   5

    1     0.24368151400583     0.98436390976324     0.00077091997405    -0.11002577474774    -0.04501924416000
    2     0.00496499919706    -0.08430146944285    -0.47729094014050     0.03148953831287     0.13143277382342
    3     0.01336198969748    -0.00272169147291    -0.08058772180834     0.12034556877184    -0.49750670695817
    4    -0.08500756747963    -0.02634212441175     0.00787156528324    -0.51241215071068    -0.17699454745923
    5     0.61369643007284    -0.16245140826327     0.02630434608160    -0.09013741934780    -0.00881583057279
    6     0.01160648621509    -0.11458583599608    -0.49918317126092     0.11877727794289     0.21885572730809
    7     0.00072007794661    -0.00321055777928    -0.03705414644385     0.02965711112225    -0.30455418744102
    8    -0.05714867745828    -0.01699188556676     0.01692991692056    -0.33740082298928    -0.16335074363526
    9     0.48749539162589    -0.12900803660889     0.02101345725193    -0.07154195644292    -0.00692039853687
   10    -0.05018383201677    -0.03706146532084    -0.07531105657773    -0.30608554275076     0.08056520945489
   11    -0.02140802848741     0.00118383072389     0.03703793584801    -0.13832914563261     0.02887647387893
   12     0.00425285017840    -0.02619121428450    -0.15164282068010     0.05823364653977    -0.28523767120050
   13     0.00403726330923     0.00593485611973    -0.00047106894569     0.03294313814883    -0.14509943003922
   14    -0.00000000041952     0.00000000108334     0.00000000065997     0.00000000116875    -0.00000026182049
   15     0.00000000314359    -0.00000001373771    -0.00000000334760    -0.00000007742052     0.00000100918718
   16     0.00000000016618    -0.00000000642274    -0.00000000132764     0.00000012259904    -0.00000057548012
   17     0.00000000368507     0.00000000185452    -0.00000000844972     0.00000010899346    -0.00000122564746
   18    -0.00000000089822     0.00000000175710    -0.00000000341835     0.00000008933260    -0.00000124074985
   19    -0.00000000404722     0.00000001664581     0.00000000268768     0.00000013350106     0.00000128177726
   20     0.00000000509846     0.00000000448431    -0.00000000885155    -0.00000002793488     0.00000375865082
   21    -0.00000000408312    -0.00000000205448     0.00000000936241    -0.00000012076528     0.00000135764843
   22     0.00000000099534    -0.00000000194577     0.00000000378780    -0.00000009898794     0.00000137345641
   23    -0.00000001687530     0.00000001249368     0.00000002400718    -0.00000003267773    -0.00000011311089
   24     0.00000001114712    -0.00000001445341    -0.00000001142036    -0.00000011033023    -0.00000506567775

                 6                   7                   8                   9                  10

    1     0.00000133087090     0.00000014544242     0.00000001025087     0.00000000200052    -0.00000000007658
    2     0.00000774895718     0.00000010275165    -0.00000033680872     0.00000008745063    -0.00000000281870
    3    -0.00000185143930    -0.00000033002189    -0.00000021322237     0.00000004927765    -0.00000000164470
    4    -0.00000098922793    -0.00000006814726     0.00000000827797     0.00000000414360     0.00000000015931
    5    -0.00000003095526     0.00000000037149    -0.00000000402515     0.00000000014297    -0.00000000000250
    6    -0.00004254338779    -0.00000263050762     0.00000067828621    -0.00000024035813     0.00000000783458
    7    -0.00003357549500    -0.00000167283626    -0.00000031162594    -0.00000018704056     0.00000000603404
    8    -0.00000040900937    -0.00000021153149     0.00000045026665     0.00000000485105    -0.00000000022324
    9     0.00000004500445     0.00000000073274     0.00000000282822     0.00000000035726     0.00000000001301
   10     0.00000300026795     0.00000004045085     0.00000006826890     0.00000002191163    -0.00000000087179
   11    -0.00001465904498    -0.00000030085994    -0.00000120248146    -0.00000010343961     0.00000000315042
   12    -0.00000641557526    -0.00000008065733     0.00000005995292    -0.00000005332755     0.00000000154096
   13     0.00007471651108     0.00000439198939     0.00000051896222     0.00000037852272    -0.00000001189268
   14    -0.05962073260849     0.20261247574156     0.10759151140041    -0.02289023850531    -0.99591164771260
   15     0.13587916555329    -0.43714679174761    -0.24348902710722     0.04867204152723    -0.02006536304865
   16    -0.24514185094142    -0.21559610585065     0.36495346695734    -0.17985505237847    -0.00042696767316
   17    -0.40103810375201     0.06061935831800    -0.40075592285052    -0.33925078518368     0.00085447314262
   18    -0.40566821903199    -0.04501528708027    -0.04211031114512     0.52134211375770    -0.00136457207364
   19     0.16633640730307    -0.46566785272652    -0.29229441507981     0.06551048301207     0.00567629318051
   20    -0.18140287750273    -0.17292174604309     0.26895346515217    -0.13422497958886     0.00148644903017
   21    -0.29434043477373     0.04451385991967    -0.29407660445218    -0.24893003817609     0.00062564660394
   22    -0.29778833574938    -0.03290707351841    -0.03087549996049     0.38259748077977    -0.00100631026134
   23    -0.10960133746433    -0.14725191048618     0.15937724401104    -0.08504432886068     0.00007893899025
   24    -0.09895541720263    -0.08014796999916     0.14817307678261    -0.07225715039895    -0.00077785411356

                11                  12                  13                  14                  15

    1    -0.05542428640743     0.02229202463095     0.00078649220719     0.03336870245506    -0.06931935729720
    2     0.15340817868332    -0.20952923838718     0.16675088417058    -1.23221598208996     0.42037262499329
    3    -0.07835809599994     0.09600809207804    -0.20895060575229     0.36409162915626    -0.54673374864249
    4    -0.36151183369682     0.15858348591275    -0.84706221256072    -0.16241492872261     0.43255014895560
    5     0.27741915809675     0.91103378899088     0.08452757197199    -0.09654312435086     0.02606461482864
    6     0.32703265606551     0.14562044201039    -0.24776365871538     1.96016949574921    -0.08114872211349
    7    -0.27776422626378     0.01311905353065     0.63013332439166     0.22045756500154     1.18401994010676
    8     1.15471251947990    -0.32450890851152     0.46388585897795     0.53455297075720    -0.25009268391789
    9    -0.29929164665517    -0.98310847589386    -0.09119149126464     0.10442535683290    -0.02810669161744
   10    -1.16788779629628     0.26341062745980     0.70501600263612    -0.33103067633894    -0.25280849047092
   11     0.06459403348676    -0.05965356725361    -0.20138665179359    -0.32487245994660     0.31250128173035
   12    -0.01474338355947    -0.05233751028800    -0.27728444362521    -1.01913169158289    -0.88431877346397
   13    -0.00346945695888     0.00336838683972     0.01194631270394     0.00658330012130    -0.02763420003292
   14     0.00000000009052     0.00000000002257    -0.00000000036505    -0.00000000014945     0.00000000016016
[...]
   19     0.00000036365600    -0.00000010317161     0.00000631328727     0.14692595055758     0.65360154989074
   20    -0.00000125545551     0.00000024676976    -0.00001632011611    -0.00048705371697    -0.01505055332405
   21    -0.00000060633614     0.00000018679662    -0.00001355352672    -0.00033557914101    -0.01036980435576
   22    -0.00000078598960     0.00000018806761    -0.00001372088056    -0.00032945333474    -0.01018050947793
   23     0.00000000694703    -0.00000006174403    -0.00000003343908     0.00791417332360     0.07137623097822
   24     0.00000068875728    -0.00000025270775     0.00001255171035     0.03657944000788     0.20606450940327

                16                  17                  18                  19                  20

    1     0.00000000077955     0.00000000047333     0.00000000048450    -0.00000000173717     0.00000000417879
    2    -0.00000001079089     0.00000000721510     0.00000000746467     0.00000002368008    -0.00000005838658
    3     0.00000004810355    -0.00000003573212    -0.00000003598883    -0.00000011678434     0.00000028053390
    4     0.00000002206314    -0.00000000833828    -0.00000000906721    -0.00000002283751     0.00000005698395
    5     0.00000000135061    -0.00000000001290     0.00000000002440     0.00000000012978    -0.00000000026005
    6    -0.00000000550422     0.00000000396762     0.00000000412664     0.00000001338551    -0.00000003526650
    7     0.00000005214489    -0.00000003895201    -0.00000003921879    -0.00000012431439     0.00000029096913
    8     0.00000002159658    -0.00000000770475    -0.00000000845637    -0.00000001824041     0.00000004036312
    9     0.00000000148748    -0.00000000016705    -0.00000000012819     0.00000000197414    -0.00000000999943
   10    -0.00000000552693     0.00000000992543     0.00000000957480     0.00000003615159    -0.00000008613418
   11    -0.00000000554581     0.00000000434514     0.00000000366614     0.00000036365600    -0.00000125545551
   12     0.00000004223668    -0.00000003087927    -0.00000003110801    -0.00000010317161     0.00000024676976
   13    -0.00000007631854    -0.00000010511798    -0.00000010635233     0.00000631328727    -0.00001632011611
   14    -0.00348865082567    -0.00240367418738    -0.00235979648285     0.14692595055758    -0.00048705371697
   15    -0.02263874715903    -0.01559805635292    -0.01531332270985     0.65360154989074    -0.01505055332405
   16     0.85649485857894     0.00086751963328     0.00085293839365    -0.02199887502587     0.42807150628585
   17     0.00086751963328     0.85583560256728     0.00058946248973    -0.01515718559709     0.00089476878793
   18     0.00085293839365     0.00058946248973     0.85581272593121    -0.01488049979883     0.00087972954548
   19    -0.02199887502587    -0.01515718559709    -0.01488049979883     0.85604772902267    -0.04404029928104
   20     0.42807150628585     0.00089476878793     0.00087972954548    -0.04404029928104     0.85845831753824
   21     0.00089476878655     0.42739154276896     0.00060797775374    -0.03034368753623     0.00467701777707
   22     0.00087972954408     0.00060797775374     0.42736794756821    -0.02978978078649     0.00459840662583
   23     0.08959290579760    -0.00118557468232    -0.00116372909282     0.20182754527497     0.35658456763923
   24     0.08146146639339    -0.00501818460618    -0.00492628693109     0.41195905595777     0.31811805774522

                21                  22                  23                  24

    1     0.00000000352572     0.00000000362136    -0.00000000031177    -0.00000000370046
    2    -0.00000004073524    -0.00000004167570     0.00000001659178     0.00000005836491
    3     0.00000020982485     0.00000021079310    -0.00000007153920    -0.00000029586516
    4     0.00000003169209     0.00000003436469    -0.00000002805602    -0.00000007363943
    5    -0.00000000068450    -0.00000000063121    -0.00000000104623    -0.00000000376600
    6    -0.00000002360353    -0.00000002401547     0.00000000938946     0.00000004766065
    7     0.00000021903091     0.00000022065571    -0.00000007758259    -0.00000024745805
    8     0.00000002044853     0.00000002285697    -0.00000002708246    -0.00000002686577
    9    -0.00000000725694    -0.00000000635731    -0.00000000116882     0.00000003594103
   10    -0.00000007091032    -0.00000007016251     0.00000001202534     0.00000007760226
   11    -0.00000060633614    -0.00000078598960     0.00000000694703     0.00000068875728
   12     0.00000018679662     0.00000018806761    -0.00000006174403    -0.00000025270775
   13    -0.00001355352672    -0.00001372088056    -0.00000003343908     0.00001255171035
   14    -0.00033557914101    -0.00032945333474     0.00791417332360     0.03657944000788
   15    -0.01036980435576    -0.01018050947793     0.07137623097822     0.20606450940327
   16     0.00089476878655     0.00087972954408     0.08959290579760     0.08146146639339
   17     0.42739154276896     0.00060797775374    -0.00118557468232    -0.00501818460618
   18     0.00060797775374     0.42736794756821    -0.00116372909282    -0.00492628693109
   19    -0.03034368753623    -0.02978978078649     0.20182754527497     0.41195905595777
   20     0.00467701777707     0.00459840662583     0.35658456763923     0.31811805774522
   21     0.85490410162411     0.00317794138666    -0.00402413888555    -0.01847098508438
   22     0.00317794138666     0.85478076789239    -0.00394931965832    -0.01813057877157
   23    -0.00402413888555    -0.00394931965832     0.74593548859774     0.49104340146217
   24    -0.01847098508438    -0.01813057877157     0.49104340146217     0.74593548859112



  ## H (Symmetry 0) ##
  Irrep: 1 Size: 24 x 24

                 1                   2                   3                   4                   5

    1   -33.03801029732087    -7.36559222143042    -0.01269929784631    -0.02385635368728     0.00003760518363
    2    -7.36559222143042    -9.91655706571519    -0.08639486172405    -0.16222570724310     0.00025657504604
    3    -0.01269929784631    -0.08639486172405    -8.51969524196081     0.01825519888819     0.00001779639597
    4    -0.02385635368728    -0.16222570724310     0.01825519888819    -8.49810263598170     0.00001626903865
    5     0.00003760518363     0.00025657504604     0.00001779639597     0.00001626903865    -8.42338517652363
    6    -5.37061673525414    -7.38434245140325    -0.08171753272951    -0.15308030937456     0.00024959684718
    7    -0.00174994031427    -0.05541590031339    -3.80895737803945     0.01655601608203     0.00001830963022
    8    -0.00328736245351    -0.10375631072511     0.01655601608169    -3.78893324115609     0.00001673822505
    9     0.00000518192644     0.00017020846202     0.00001830963036     0.00001673822507    -3.72091536640347
   10    -1.13190275080824    -2.36657287051055     0.89661546041258    -2.10606268235739     0.00006117450173
   11    -2.22020300991281    -3.62849419302774     0.41845233804388    -1.11667410323634     0.00013352993882
   12    -1.10064128636234    -2.31947475605482    -2.22176471309120    -0.38428264524993     0.00006643629500
   13    -2.20387074423587    -3.60460852334686    -1.16376352874635    -0.25473145908168     0.00013712464180
   14     0.00000000000199     0.00000000063986     0.00000000101224     0.00000000012676     0.00000000003711
   15     0.00000000057670     0.00000003775511     0.00000014869329     0.00000001706637     0.00000000176666
   16     0.00000000001618    -0.00000009787069    -0.00000028724793    -0.00000003822382    -0.00000000334468
   17    -0.00000000013677    -0.00000013711480    -0.00000043341641    -0.00000004033262    -0.00000000493436
   18    -0.00000000012732    -0.00000014097880    -0.00000043591723    -0.00000004712687    -0.00000000481677
   19     0.00000000065313     0.00000003452582     0.00000013922029     0.00000001552970     0.00000000183551
   20     0.00000000002035    -0.00000010782200    -0.00000031599390    -0.00000004198572    -0.00000000365232
   21    -0.00000000013812    -0.00000012424249    -0.00000039253278    -0.00000003650528    -0.00000000452360
   22    -0.00000000013161    -0.00000012770709    -0.00000039471392    -0.00000004270317    -0.00000000431586
   23     0.00000000018320    -0.00000006041791    -0.00000016844179    -0.00000002266047    -0.00000000149711
   24     0.00000000033515    -0.00000004299537    -0.00000010976968    -0.00000001577921    -0.00000000091946

                 6                   7                   8                   9                  10

    1    -5.37061673525414    -0.00174994031427    -0.00328736245351     0.00000518192644    -1.13190275080824
    2    -7.38434245140325    -0.05541590031339    -0.10375631072511     0.00017020846202    -2.36657287051055
    3    -0.08171753272951    -3.80895737803945     0.01655601608169     0.00001830963036     0.89661546041258
    4    -0.15308030937456     0.01655601608203    -3.78893324115609     0.00001673822507    -2.10606268235739
    5     0.00024959684718     0.00001830963022     0.00001673822505    -3.72091536640347     0.00006117450173
    6    -7.26020210461200    -0.11658945732953    -0.21593243155843     0.00049768010869    -2.91441853017942
    7    -0.11658945732953    -4.76932540420101     0.03740390012857     0.00009520002642     1.22770532118381
    8    -0.21593243155843     0.03740390012857    -4.72141714092842     0.00008702958199    -2.87397177996704
    9     0.00049768010869     0.00009520002642     0.00008702958199    -4.56635542341628     0.00012695898150
   10    -2.91441853017942     1.22770532118381    -2.87397177996704     0.00012695898150    -5.01292565435330
   11    -4.37615636159932     0.77986194312292    -2.06582411746692     0.00044885099926    -3.56332920379265
   12    -2.87742083158281    -3.06597778652351    -0.52619859178833     0.00015474763799    -0.45482442850703
   13    -4.35288485020229    -2.16209383345399    -0.46652622731489     0.00049486754367    -1.46938444042220
   14    -0.00000000043471    -0.00000000140623    -0.00000000032793    -0.00000000022200     0.00000000001567
   15    -0.00000004646242    -0.00000000927625    -0.00000000342195    -0.00000001006407    -0.00000002065206
   16     0.00000009984697     0.00000005198374     0.00000000608476     0.00000001859160     0.00000003337249
   17     0.00000014092496     0.00000007276612     0.00000000802252     0.00000002651093     0.00000004266211
   18     0.00000014497183     0.00000007383664     0.00000000904553     0.00000002612816     0.00000004628664
   19    -0.00000004700639    -0.00000003068224    -0.00000001844216    -0.00000002354018    -0.00000001930901
   20     0.00000012691080     0.00000013542635     0.00000006327594     0.00000007485169     0.00000003661295
   21     0.00000013949598     0.00000012348302     0.00000004276265     0.00000006224739     0.00000003860522
   22     0.00000014269187     0.00000012248419     0.00000004656786     0.00000005609358     0.00000004188911
   23     0.00000006005615     0.00000003389123     0.00000000105566     0.00000000830805     0.00000001864408
   24    -0.00000001246370    -0.00000018548828    -0.00000011550873    -0.00000010594923     0.00000001099743

                11                  12                  13                  14                  15

    1    -2.22020300991281    -1.10064128636234    -2.20387074423587     0.00000000000199     0.00000000057670
    2    -3.62849419302774    -2.31947475605482    -3.60460852334686     0.00000000063986     0.00000003775511
    3     0.41845233804388    -2.22176471309120    -1.16376352874635     0.00000000101224     0.00000014869329
    4    -1.11667410323634    -0.38428264524993    -0.25473145908168     0.00000000012676     0.00000001706637
    5     0.00013352993882     0.00006643629500     0.00013712464180     0.00000000003711     0.00000000176666
    6    -4.37615636159932    -2.87742083158281    -4.35288485020229    -0.00000000043471    -0.00000004646242
    7     0.77986194312292    -3.06597778652351    -2.16209383345399    -0.00000000140623    -0.00000000927625
    8    -2.06582411746692    -0.52619859178833    -0.46652622731489    -0.00000000032793    -0.00000000342195
    9     0.00044885099926     0.00015474763799     0.00049486754367    -0.00000000022200    -0.00000001006407
   10    -3.56332920379265    -0.45482442850703    -1.46938444042220     0.00000000001567    -0.00000002065206
   11    -4.51088715748534    -1.46344409685043    -2.79549580537734    -0.00000000354675    -0.00000016038801
   12    -1.46344409685043    -4.98206817703848    -3.54528197061509    -0.00000000164844    -0.00000005700346
   13    -2.79549580537734    -3.54528197061509    -4.49632421269125    -0.00000013594665    -0.00000228113667
   14    -0.00000000354675    -0.00000000164844    -0.00000013594665   -27.13683147451389    -7.04328026460456
   15    -0.00000016038801    -0.00000005700346    -0.00000228113667    -7.04328026460456    -3.64552951981647
   16     0.00000028069609     0.00000016455141     0.00000251314952    -0.01665515303950     0.00659864312883
   17     0.00000029167631     0.00000023616170     0.00000323903565     0.00242785872038     0.01567107470579
   18     0.00000033319111     0.00000024023350     0.00000328735959     0.00244835834340     0.01558235012127
   19    -0.00000131974000    -0.00000005359949    -0.00002078751694    -4.91734380189305    -3.34861501037355
   20     0.00000412275795     0.00000018235225     0.00004670224950    -0.00301265172140    -0.00484400164991
   21     0.00000203284786     0.00000021510069     0.00003977171005     0.00033855054808     0.01042849376484
   22     0.00000266105069     0.00000021893278     0.00004031046259     0.00034036442621     0.01039613676761
   23     0.00000013717003     0.00000010318422     0.00000076042609    -0.27816093541531    -0.48614155183223
   24    -0.00000149459082     0.00000003484913    -0.00002784784497    -1.23975894155618    -1.16826907069522

                16                  17                  18                  19                  20

    1     0.00000000001618    -0.00000000013677    -0.00000000012732     0.00000000065313     0.00000000002035
    2    -0.00000009787069    -0.00000013711480    -0.00000014097880     0.00000003452582    -0.00000010782200
    3    -0.00000028724793    -0.00000043341641    -0.00000043591723     0.00000013922029    -0.00000031599390
    4    -0.00000003822382    -0.00000004033262    -0.00000004712687     0.00000001552970    -0.00000004198572
    5    -0.00000000334468    -0.00000000493436    -0.00000000481677     0.00000000183551    -0.00000000365232
    6     0.00000009984697     0.00000014092496     0.00000014497183    -0.00000004700639     0.00000012691080
    7     0.00000005198374     0.00000007276612     0.00000007383664    -0.00000003068224     0.00000013542635
    8     0.00000000608476     0.00000000802252     0.00000000904553    -0.00000001844216     0.00000006327594
    9     0.00000001859160     0.00000002651093     0.00000002612816    -0.00000002354018     0.00000007485169
   10     0.00000003337249     0.00000004266211     0.00000004628664    -0.00000001930901     0.00000003661295
   11     0.00000028069609     0.00000029167631     0.00000033319111    -0.00000131974000     0.00000412275795
   12     0.00000016455141     0.00000023616170     0.00000024023350    -0.00000005359949     0.00000018235225
   13     0.00000251314952     0.00000323903565     0.00000328735959    -0.00002078751694     0.00004670224950
   14    -0.01665515303950     0.00242785872038     0.00244835834340    -4.91734380189305    -0.00301265172140
   15     0.00659864312883     0.01567107470579     0.01558235012127    -3.34861501037355    -0.00484400164991
   16    -0.90260455012330    -0.00088541579439    -0.00092235547743    -0.02790917976407    -1.19608121741839
   17    -0.00088541579439    -1.09656973698887    -0.00058160907800     0.01524899138278    -0.00091176497763
   18    -0.00092235547743    -0.00058160907800    -1.09653737643423     0.01521790700232    -0.00093530815871
   19    -0.02790917976407     0.01524899138278     0.01521790700232    -2.86919446374043    -0.07983077820836
   20    -1.19608121741839    -0.00091176497763    -0.00093530815871    -0.07983077820836    -0.91422073420228
   21    -0.00091234470205    -1.24816962551963    -0.00062151079971     0.03053860317277    -0.00473255923573
   22    -0.00093603749469    -0.00062151103443    -1.24816221004500     0.03050656261201    -0.00474968538041
   23    -0.52381578615422     0.00119669305707     0.00120361333371    -0.63188397359178    -0.73446432566769
   24    -0.42478412469396     0.00505836019301     0.00507587124856    -1.20890375052120    -0.59161308646404

                21                  22                  23                  24

    1    -0.00000000013812    -0.00000000013161     0.00000000018320     0.00000000033515
    2    -0.00000012424249    -0.00000012770709    -0.00000006041791    -0.00000004299537
    3    -0.00000039253278    -0.00000039471392    -0.00000016844179    -0.00000010976968
    4    -0.00000003650528    -0.00000004270317    -0.00000002266047    -0.00000001577921
    5    -0.00000000452360    -0.00000000431586    -0.00000000149711    -0.00000000091946
    6     0.00000013949598     0.00000014269187     0.00000006005615    -0.00000001246370
    7     0.00000012348302     0.00000012248419     0.00000003389123    -0.00000018548828
    8     0.00000004276265     0.00000004656786     0.00000000105566    -0.00000011550873
    9     0.00000006224739     0.00000005609358     0.00000000830805    -0.00000010594923
   10     0.00000003860522     0.00000004188911     0.00000001864408     0.00000001099743
   11     0.00000203284786     0.00000266105069     0.00000013717003    -0.00000149459082
   12     0.00000021510069     0.00000021893278     0.00000010318422     0.00000003484913
   13     0.00003977171005     0.00004031046259     0.00000076042609    -0.00002784784497
   14     0.00033855054808     0.00034036442621    -0.27816093541531    -1.23975894155618
   15     0.01042849376484     0.01039613676761    -0.48614155183223    -1.16826907069522
   16    -0.00091234470205    -0.00093603749469    -0.52381578615422    -0.42478412469396
   17    -1.24816962551963    -0.00062151103443     0.00119669305707     0.00505836019301
   18    -0.00062151079971    -1.24816221004500     0.00120361333371     0.00507587124856
   19     0.03053860317277     0.03050656261201    -0.63188397359178    -1.20890375052120
   20    -0.00473255923573    -0.00474968538041    -0.73446432566769    -0.59161308646404
   21    -0.77329133899661    -0.00326562649357     0.00404840006746     0.01858406612433
   22    -0.00326562649357    -0.77327300287855     0.00405311506937     0.01857635675017
   23     0.00404840006746     0.00405311506937    -0.75219632516729    -0.95011761047629
   24     0.01858406612433     0.01857635675017    -0.95011761047629    -1.16861737077592





	Energy of system A =     -85.097615383050 

	

	Energy of system B =    -112.461707135827 

	

	 Embedded energy =    -175.919458799955 
 
	

	Energy of system  =    -175.919458799955 

	

	Error  =       0.000000000000 

	Reading options from the PLUGIN_PROP block
Calling plugin /Users/kevinhannon/Programs/PsiPlugins_psi4public/plugin_prop/plugin_prop.so.

*** tstart() called on Kevins-MacBook-Pro.local
*** at Fri Jan  9 17:31:35 2015


*** tstop() called on Kevins-MacBook-Pro.local at Fri Jan  9 17:31:44 2015
Module time:
	user time   =       7.69 seconds =       0.13 minutes
	system time =       0.43 seconds =       0.01 minutes
	total time  =          9 seconds =       0.15 minutes
Total time:
	user time   =       8.54 seconds =       0.14 minutes
	system time =       0.48 seconds =       0.01 minutes
	total time  =          9 seconds =       0.15 minutes

*** PSI4 exiting successfully. Buy a developer a beer!
