    -----------------------------------------------------------------------
          PSI4: An Open-Source Ab Initio Electronic Structure Package
                              PSI 4.0 Driver

               Git: Rev {master} 

    J. M. Turney, A. C. Simmonett, R. M. Parrish, E. G. Hohenstein,
    F. A. Evangelista, J. T. Fermann, B. J. Mintz, L. A. Burns, J. J. Wilke,
    M. L. Abrams, N. J. Russ, M. L. Leininger, C. L. Janssen, E. T. Seidl,
    W. D. Allen, H. F. Schaefer, R. A. King, E. F. Valeev, C. D. Sherrill,
    and T. D. Crawford, WIREs Comput. Mol. Sci. 2, 556-565 (2012)
    (doi: 10.1002/wcms.93)

                         Additional Contributions by
    A. E. DePrince, M. Saitow, U. Bozkaya, A. Yu. Sokolov
    -----------------------------------------------------------------------

    Process ID:  45188
    PSI4DATADIR: /Users/kevinhannon/Programs/psi4private/lib
    Memory level set to 256.000 MB

  ==> Input File <==

--------------------------------------------------------------------------

# PYTHONPATH must include directory above plugin directory.
#     Define either externally or here, then import plugin.


# Path to plugin_prop.so
objdir = '/Users/kevinhannon/Programs/PsiPlugins_psi4public/plugin_prop'
# Path to data directory
datadir = 'data/'

import sys
sys.path.append(objdir)
import prop

sys.path.insert(0, './..')

import plugin_fragment

#molecule {
##O         -1.485163346097    -0.114724564047     0.000000000000
##H         -1.868415346097     0.762298435953     0.000000000000
#H         -0.533833346097     0.040507435953     0.000000000000
#--
##H        8.200             7.000             7.000
#units angstrom
#symmetry c1
#}

#molecule {
#H        200000000.00               200000000.000             200000000.000
#H        200000001.00               200000000.000             200000000.000
#--
#H        -1003.000             -1003.000             -1003.000
#H        -1002.000             -1003.000             -1003.000
#units angstrom
#symmetry c1
#}
molec--------------------------------------------------------------------------

*** tstart() called on Kevins-MacBook-Pro.local
*** at Tue Jan  6 13:51:01 2015

/Users/kevinhannon/Programs/PsiPlugins_psi4public/plugin_prop/plugin_prop.so loaded.
/Users/kevinhannon/Programs/Quantum_Programs/Quantum-Programs/plugin_fragment/plugin_fragment.so loaded.

*** tstart() called on Kevins-MacBook-Pro.local
*** at Tue Jan  6 13:51:01 2015

	There are an even number of electrons - assuming singlet.
	Specify the multiplicity with the MULTP option in the
	input if this is incorrect


         ---------------------------------------------------------
                                   SCF
            by Justin Turney, Rob Parrish, and Andy Simmonett
                              RHF Reference
                        1 Threads,    256 MiB Core
         ---------------------------------------------------------

  ==> Geometry <==

    Molecular point group: c1
    Full point group: C1

    Geometry (in Angstrom), charge = 0, multiplicity = 1:

       Center              X                  Y                   Z       
    ------------   -----------------  -----------------  -----------------
           O         -2.407176088730    -1.666479945112    -1.578741396290
           H         -2.790428088730    -0.789456945112    -1.578741396290
           H         -1.455846088730    -1.511247945112    -1.578741396290
           F          2.077987257367     1.448244618935     1.421258603710
           H          3.277987257367     1.448244618935     1.421258603710

  Running in c1 symmetry.


	Rotational constants (cm^-1):
	A =    9.04598    B =    0.04574   C =    0.04557

	Rotational constants (MHz):
	A = 271191.61763    B = 1371.33495   C = 1366.27736
  Nuclear repulsion =   21.639863718922197

  Charge       = 0
  Multiplicity = 1
  Electrons    = 20
  Nalpha       = 10
  Nbeta        = 10

  ==> Algorithm <==

  SCF Algorithm Type is PK.
  DIIS enabled.
  MOM disabled.
  Fractional occupation disabled.
  Guess Type is CORE.
  Energy threshold   = 1.00e-06
  Density threshold  = 1.00e-12
  Integral threshold = 0.00e+00

  ==> Primary Basis <==

  Basis Set: STO-3G
    Number of shells: 9
    Number of basis function: 13
    Number of Cartesian functions: 13
    Spherical Harmonics?: true
    Max angular momentum: 1

  ==> Pre-Iterations <==

   -------------------------------------------------------
    Irrep   Nso     Nmo     Nalpha   Nbeta   Ndocc  Nsocc
   -------------------------------------------------------
     A         13      13       0       0       0       0
   -------------------------------------------------------
    Total      13      13      10      10      10       0
   -------------------------------------------------------

  Starting with a DF guess...

 OEINTS: Wrapper to libmints.
   by Justin Turney

   Calculation information:
      Number of atoms:                   5
      Number of AO shells:               9
      Number of SO shells:               9
      Number of primitives:             27
      Number of atomic orbitals:        13
      Number of basis functions:        13

      Number of irreps:                  1
      Number of functions per irrep: [  13 ]

      Overlap, kinetic, potential, dipole, and quadrupole integrals
        stored in file 35.

  ==> Integral Setup <==

  ==> DFJK: Density-Fitted J/K Matrices <==

    J tasked:                  Yes
    K tasked:                  Yes
    wK tasked:                  No
    OpenMP threads:              1
    Integrals threads:           1
    Memory (MB):               183
    Algorithm:                Core
    Integral Cache:           NONE
    Schwarz Cutoff:          1E-12
    Fitting Condition:       1E-12

   => Auxiliary Basis Set <=

  Basis Set: CC-PVDZ-JKFIT
    Number of shells: 75
    Number of basis function: 209
    Number of Cartesian functions: 237
    Spherical Harmonics?: true
    Max angular momentum: 3

  Minimum eigenvalue in the overlap matrix is 3.4428950414E-01.
  Using Symmetric Orthogonalization.
  SCF Guess: Core (One-Electron) Hamiltonian.

  ==> Iterations <==

                           Total Energy        Delta E     RMS |[F,P]|

   @DF-RHF iter   1:  -171.13009534213452   -1.71130e+02   8.70442e-02 
   @DF-RHF iter   2:  -170.53850342046445    5.91592e-01   6.51180e-02 DIIS
   @DF-RHF iter   3:  -161.56307960340891    8.97542e+00   1.05664e-01 DIIS
   @DF-RHF iter   4:  -173.36331873690500   -1.18002e+01   2.92917e-02 DIIS
   @DF-RHF iter   5:  -173.46282048347126   -9.95017e-02   1.16834e-02 DIIS
   @DF-RHF iter   6:  -173.47487223525619   -1.20518e-02   8.15014e-03 DIIS
   @DF-RHF iter   7:  -173.47486105230610    1.11830e-05   8.58811e-03 DIIS
   @DF-RHF iter   8:  -173.47588493432951   -1.02388e-03   8.19125e-03 DIIS
   @DF-RHF iter   9:  -173.48394305910355   -8.05812e-03   4.06575e-03 DIIS
   @DF-RHF iter  10:  -173.48668585609619   -2.74280e-03   4.45522e-04 DIIS
   @DF-RHF iter  11:  -173.48670858032912   -2.27242e-05   1.53025e-04 DIIS
   @DF-RHF iter  12:  -173.48671211898676   -3.53866e-06   4.01531e-06 DIIS
   @DF-RHF iter  13:  -173.48671212088561   -1.89885e-09   1.35675e-07 DIIS
   @DF-RHF iter  14:  -173.48671212089462   -9.00968e-12   2.36155e-08 DIIS
   @DF-RHF iter  15:  -173.48671212089496   -3.41061e-13   3.04103e-09 DIIS
   @DF-RHF iter  16:  -173.48671212089482    1.42109e-13   6.20012e-10 DIIS
   @DF-RHF iter  17:  -173.48671212089491   -8.52651e-14   1.45477e-10 DIIS
   @DF-RHF iter  18:  -173.48671212089494   -2.84217e-14   2.39248e-11 DIIS
   @DF-RHF iter  19:  -173.48671212089482    1.13687e-13   6.80940e-12 DIIS
   @DF-RHF iter  20:  -173.48671212089491   -8.52651e-14   2.14044e-12 DIIS
   @DF-RHF iter  21:  -173.48671212089494   -2.84217e-14   1.07977e-13 DIIS

  DF guess converged.

  ==> Integral Setup <==

 MINTS: Wrapper to libmints.
   by Justin Turney

   Calculation information:
      Number of atoms:                   5
      Number of AO shells:               9
      Number of SO shells:               9
      Number of primitives:             27
      Number of atomic orbitals:        13
      Number of basis functions:        13

      Number of irreps:                  1
      Integral cutoff                 0.00e+00
      Number of functions per irrep: [  13 ]

      Overlap, kinetic, potential, dipole, and quadrupole integrals
        stored in file 35.

      Computing two-electron integrals...done
      Computed 4077 non-zero two-electron integrals.
        Stored in file 33.

	Batch   1 pq = [       0,      91] index = [             0,4186]
  ==> DiskJK: Disk-Based J/K Matrices <==

    J tasked:                  Yes
    K tasked:                  Yes
    wK tasked:                  No
    Memory (MB):               183
    Schwarz Cutoff:          1E-12

   @RHF iter  22:  -173.48663597027789    7.61506e-05   1.82845e-06 DIIS
   @RHF iter  23:  -173.48663597085871   -5.80826e-10   3.30807e-07 DIIS
   @RHF iter  24:  -173.48663597087349   -1.47793e-11   9.29120e-08 DIIS
   @RHF iter  25:  -173.48663597087511   -1.62004e-12   1.83304e-08 DIIS
   @RHF iter  26:  -173.48663597087545   -3.41061e-13   1.51842e-09 DIIS
   @RHF iter  27:  -173.48663597087545    0.00000e+00   9.87039e-11 DIIS
   @RHF iter  28:  -173.48663597087531    1.42109e-13   1.51516e-11 DIIS
   @RHF iter  29:  -173.48663597087543   -1.13687e-13   5.58234e-12 DIIS
   @RHF iter  30:  -173.48663597087540    2.84217e-14   1.84856e-12 DIIS
   @RHF iter  31:  -173.48663597087543   -2.84217e-14   3.95469e-13 DIIS

  ==> Post-Iterations <==

	Orbital Energies (a.u.)
	-----------------------

	Doubly Occupied:                                                      

	   1A    -25.926883     2A    -20.240189     3A     -1.421202  
	   4A     -1.264822     5A     -0.613792     6A     -0.500406  
	   7A     -0.466224     8A     -0.466185     9A     -0.451005  
	  10A     -0.389092  

	Virtual:                                                              

	  11A      0.384634    12A      0.604832    13A      0.740197  

	Final Occupation by Irrep:
	          A 
	DOCC [    10 ]

  Energy converged.

  @RHF Final Energy:  -173.48663597087543

   => Energetics <=

    Nuclear Repulsion Energy =             21.6398637189221965
    One-Electron Energy =                -286.7733971042094936
    Two-Electron Energy =                  91.6468974144119386
    DFT Exchange-Correlation Energy =       0.0000000000000000
    Empirical Dispersion Energy =           0.0000000000000000
    Total Energy =                       -173.4866359708753691



Properties will be evaluated at   0.000000,   0.000000,   0.000000 Bohr
  ==> Properties <==


Properties computed using the SCF density matrix

  Nuclear Dipole Moment: (a.u.)
     X:    -2.8796      Y:    -2.1734      Z:    -2.9760

  Electronic Dipole Moment: (a.u.)
     X:     3.6203      Y:     2.7696      Z:     2.9760

  Dipole Moment: (a.u.)
     X:     0.7407      Y:     0.5962      Z:     0.0000     Total:     0.9508

  Dipole Moment: (Debye)
     X:     1.8826      Y:     1.5154      Z:     0.0000     Total:     2.4168


  Saving occupied orbitals to File 180.

*** tstop() called on Kevins-MacBook-Pro.local at Tue Jan  6 13:51:01 2015
Module time:
	user time   =       0.25 seconds =       0.00 minutes
	system time =       0.02 seconds =       0.00 minutes
	total time  =          0 seconds =       0.00 minutes
Total time:
	user time   =       0.29 seconds =       0.00 minutes
	system time =       0.03 seconds =       0.00 minutes
	total time  =          0 seconds =       0.00 minutes
Reading options from the PLUGIN_FRAGMENT block
Calling plugin plugin_fragment.so.


         ---------------------------------------------------------
                            ORBITAL LOCALIZATION
                        by Francesco A. Evangelista
         ---------------------------------------------------------

  ==> Details <==

    Number of fragments: 2
  Fragment contains 3 atoms
The number of basis functions on A are 7
The number of basis functions on B are 6number of electrons 10
 # lo #
 Irrep: 1
      1:  1.0000000
      2:  1.0000000
      3:  1.0000000
      4:  1.0000000
      5:  1.0000000
      6:  0.0000000
      7:  0.0000000
      8:  0.0000000
      9: -0.0000000
     10: -0.0000000


 # lv #
 Irrep: 1
      1:  1.0000000
      2:  1.0000000
      3:  0.0000000

  ## U (Symmetry 0) ##
  Irrep: 1 Size: 13 x 13

                 1                   2                   3                   4                   5

    1    -0.00000000001533    -0.00000000015129     0.00000000000736     0.00000000013791    -0.00000000080372
    2     0.91961247331727     0.07664334810853    -0.04394074155281     0.38272146440042    -0.00567344947910
    3    -0.00000000423415     0.00000081461130    -0.00000012441559    -0.00000014952923     0.00000077447982
    4    -0.08101586858874     0.97570333030141    -0.17405756862363    -0.01917123280093     0.10380687314628
    5     0.27461729364921    -0.04633422256404     0.11028305825963    -0.62725956505191     0.71890303027674
    6    -0.00000041338749    -0.00000012515029    -0.00000014840795     0.00000099944502     0.00000013362064
    7    -0.00000881600754    -0.00000287433541    -0.00000307469974     0.00002166315428     0.00001687209101
    8     0.00000246542693     0.00000079758178     0.00000086052428    -0.00000605603072    -0.00000466372956
    9     0.26733900985960     0.09875688076740     0.09215336150406    -0.66175374022932    -0.68728936894610
   10     0.02940278402134    -0.17386496697252    -0.97320017419378    -0.14759461154286    -0.00192383579247
   11     0.00000000000000     0.00000000000000     0.00000000000000     0.00000000000000     0.00000000000000
   12     0.00000000000000     0.00000000000000     0.00000000000000     0.00000000000000     0.00000000000000
   13     0.00000000000000     0.00000000000000     0.00000000000000     0.00000000000000     0.00000000000000

                 6                   7                   8                   9                  10

    1    -0.00073789143536    -0.00368863619440     0.01195842454360     0.99991732988027     0.00285988929964
    2    -0.00000000357144    -0.00000000161715     0.00000000025238    -0.00000000004104    -0.00000000066754
    3     0.37671651733211     0.66920373415021    -0.57544965180735     0.01043258546648    -0.28106918572224
    4    -0.00000013121614    -0.00000070940093     0.00000054417318    -0.00000000962575     0.00000022297262
    5     0.00000368803384    -0.00000202688828     0.00000107925675    -0.00000001710018     0.00000003432313
    6    -0.03592549900549    -0.58224885648664    -0.34036028539832     0.00400531974859    -0.73745132800563
    7     0.89076462578916    -0.38040594897674     0.01965390878468    -0.00168994773445     0.24787206886323
    8    -0.25165822112770    -0.26159193255377    -0.74329219979262     0.00613156227713     0.56188691937723
    9     0.00002783024299    -0.00000914976912     0.00000602267307    -0.00000009106771     0.00000188163047
   10    -0.00000000262574     0.00000000463734     0.00000000139855    -0.00000000001379     0.00000000431699
   11     0.00000000000000     0.00000000000000     0.00000000000000     0.00000000000000     0.00000000000000
   12     0.00000000000000     0.00000000000000     0.00000000000000     0.00000000000000     0.00000000000000
   13     0.00000000000000     0.00000000000000     0.00000000000000     0.00000000000000     0.00000000000000

                11                  12                  13

    1     0.00000000000000     0.00000000000000     0.00000000000000
    2     0.00000000000000     0.00000000000000     0.00000000000000
    3     0.00000000000000     0.00000000000000     0.00000000000000
    4     0.00000000000000     0.00000000000000     0.00000000000000
    5     0.00000000000000     0.00000000000000     0.00000000000000
    6     0.00000000000000     0.00000000000000     0.00000000000000
    7     0.00000000000000     0.00000000000000     0.00000000000000
    8     0.00000000000000     0.00000000000000     0.00000000000000
    9     0.00000000000000     0.00000000000000     0.00000000000000
   10     0.00000000000000     0.00000000000000     0.00000000000000
   11    -0.00000252904206    -0.00001423761171    -0.99999999989545
   12    -0.64732091068674    -0.76221757945596     0.00001248925974
   13    -0.76221757955409     0.64732091065065    -0.00000728862346



  ## S_ao (Symmetry 0) ##
  Irrep: 1 Size: 13 x 13

                 1                   2                   3                   4                   5

    1     1.00000000000000    -0.00000000000000    -0.00000000000000     0.00000000000000    -0.00000000000000
    2    -0.00000000000000     1.00000000000000    -0.00000000000000     0.00000000000000     0.00000000000000
    3    -0.00000000000000    -0.00000000000000     1.00000000000000    -0.00000000000000     0.00000000000000
    4     0.00000000000000     0.00000000000000    -0.00000000000000     1.00000000000000     0.00000000000000
    5    -0.00000000000000     0.00000000000000     0.00000000000000     0.00000000000000     1.00000000000000
    6     0.00000000000000    -0.00000000000000     0.00000000000000     0.00000000000000     0.00000000000000
    7    -0.00000000000000     0.00000000000000    -0.00000000000000    -0.00000000000000     0.00000000000000
    8    -0.00000000000000    -0.00000000000000    -0.00000000000000    -0.00000000000000    -0.00000000000000
    9     0.00000000000000     0.00000000000000     0.00000000000000    -0.00000000000000    -0.00000000000000
   10     0.00000000000000    -0.00000000000000    -0.00000000000000     0.00000000000000     0.00000000000000
   11     0.00000000000000     0.00000000000000    -0.00000000000000     0.00000000000000     0.00000000000000
   12     0.00000000000000    -0.00000000000000     0.00000000000000    -0.00000000000000    -0.00000000000000
   13     0.00000000000000     0.00000000000000     0.00000000000000     0.00000000000000     0.00000000000000

                 6                   7                   8                   9                  10

    1     0.00000000000000    -0.00000000000000    -0.00000000000000     0.00000000000000     0.00000000000000
    2    -0.00000000000000     0.00000000000000    -0.00000000000000     0.00000000000000    -0.00000000000000
    3     0.00000000000000    -0.00000000000000    -0.00000000000000     0.00000000000000    -0.00000000000000
    4     0.00000000000000    -0.00000000000000    -0.00000000000000    -0.00000000000000     0.00000000000000
    5     0.00000000000000     0.00000000000000    -0.00000000000000    -0.00000000000000     0.00000000000000
    6     1.00000000000000     0.00000000000000     0.00000000000000     0.00000000000000    -0.00000000000000
    7     0.00000000000000     1.00000000000000    -0.00000000000000     0.00000000000000     0.00000000000000
    8     0.00000000000000    -0.00000000000000     1.00000000000000    -0.00000000000000     0.00000000000000
    9     0.00000000000000     0.00000000000000    -0.00000000000000     1.00000000000000     0.00000000000000
   10    -0.00000000000000     0.00000000000000     0.00000000000000     0.00000000000000     1.00000000000000
   11     0.00000000000000     0.00000000000000     0.00000000000000    -0.00000000000000    -0.00000000000000
   12     0.00000000000000    -0.00000000000000     0.00000000000000    -0.00000000000000     0.00000000000000
   13    -0.00000000000000    -0.00000000000000     0.00000000000000    -0.00000000000000     0.00000000000000

                11                  12                  13

    1     0.00000000000000     0.00000000000000     0.00000000000000
    2     0.00000000000000    -0.00000000000000     0.00000000000000
    3    -0.00000000000000     0.00000000000000     0.00000000000000
    4    -0.00000000000000    -0.00000000000000     0.00000000000000
    5     0.00000000000000    -0.00000000000000     0.00000000000000
    6     0.00000000000000     0.00000000000000    -0.00000000000000
    7     0.00000000000000    -0.00000000000000    -0.00000000000000
    8     0.00000000000000     0.00000000000000     0.00000000000000
    9    -0.00000000000000    -0.00000000000000    -0.00000000000000
   10    -0.00000000000000     0.00000000000000     0.00000000000000
   11     1.00000000000000    -0.00000000000000    -0.00000000000000
   12    -0.00000000000000     1.00000000000000    -0.00000000000000
   13    -0.00000000000000    -0.00000000000000     1.00000000000000



  ## C (Symmetry 0) ##
  Irrep: 1 Size: 13 x 13

                 1                   2                   3                   4                   5

    1     0.92321148655472     0.31358570793682    -0.07455010138987     0.30711292366615    -0.05148708837953
    2    -0.05300226105772    -0.86512042962792     0.09383560048868     0.38470335512227     0.27722565849491
    3     0.02946346505293    -0.17370274368675    -0.97319948847112    -0.14777618200186    -0.00205322533609
    4    -0.03952558902803     0.00326128022010    -0.01384003111330     0.08846247388321    -0.64440194261481
    5     0.27497440424691    -0.05709538222525     0.11478325456593    -0.63011225857048    -0.26864435175769
    6     0.20380917081230    -0.14961924283848     0.10274899143510    -0.46190442698848     0.11321335488853
    7    -0.03966160892027    -0.10528128163195     0.00446046741385     0.09365856013617    -0.52973919514839
    8     0.00000000000288     0.00000000000498    -0.00000000000157    -0.00000000002241    -0.00000006722278
    9    -0.00000000001613    -0.00000000002791     0.00000000000879     0.00000000012559     0.00000037665830
   10     0.00000000000000    -0.00000000000000    -0.00000000000000    -0.00000000000000    -0.00000000000290
   11    -0.00000000003954    -0.00000000006842     0.00000000002154     0.00000000030788     0.00000092337774
   12     0.00000000000000     0.00000000000000    -0.00000000000000    -0.00000000000000    -0.00000000000555
   13     0.00000000004589     0.00000000007942    -0.00000000002500    -0.00000000035735    -0.00000107172723

                 6                   7                   8                   9                  10

    1    -0.00000018144842     0.00000002770167    -0.00000000456952    -0.00000000015148     0.00000000949278
    2     0.00000112873296    -0.00000021428453     0.00000003616581     0.00000000118751    -0.00000007430329
    3     0.00000000007118     0.00000000007576     0.00000000002604     0.00000000000037     0.00000000007513
    4     0.00000167058297    -0.00000015617707     0.00000003136795     0.00000000108374    -0.00000006110180
    5     0.00000038300982    -0.00000004344583     0.00000000275707     0.00000000008512    -0.00000000930121
    6    -0.00000015934566     0.00000001081329     0.00000000355418     0.00000000026335    -0.00000000536145
    7    -0.00000176559490     0.00000042618249    -0.00000007845972    -0.00000000271013     0.00000015823443
    8     0.09425070720505     0.13751792924749    -0.15463233686334     0.99777748116323    -0.10927327703404
    9    -0.36334145413741    -0.50417171532904     0.66498258997562     0.00928542636826     0.48240707341274
   10     0.65923939491943    -0.46010721285399    -0.34175292431921     0.00148305938864     0.48673145790236
   11    -0.03660875051050    -0.41856408606671    -0.21654096052196     0.00385044694274    -0.49813456307373
   12     0.64983809688289     0.04560419673966     0.66050826709463    -0.00618425370557    -0.37325767126889
   13    -0.06123615625898    -0.41305260211603    -0.14097673378980    -0.00200839270196    -0.40650261131300

                11                  12                  13

    1    -0.08837539220529    -0.09785723486638     0.00000017675505
    2     0.59109354870477     0.65015288607283    -0.00000123801587
    3     0.00002087460013     0.00002377493742     0.00000000268837
    4    -0.40934699805922     0.84257356982839    -0.00000001512556
    5     0.78864722988745     0.17023999216834     0.00000023678516
    6    -1.15657445612109    -0.03400966643734    -0.00000024835683
    7     0.09186737534383    -1.14581363533144     0.00000261693283
    8     0.00000000390527    -0.00000023561201    -0.05635205194225
    9    -0.00000001387979     0.00000090829785     0.31574813993484
   10    -0.00000001439097    -0.00000164801342    -0.00000242788911
   11    -0.00000001650055     0.00000009150400     0.77405649174848
   12     0.00000000213650    -0.00000162450978    -0.00000465156040
   13    -0.00000001581204     0.00000015307005    -0.89841608300668



  ## DF (Symmetry 0) ##
  Irrep: 1 Size: 13 x 13

                 1                   2                   3                   4                   5

    1     1.05318243089866    -0.22334332197219     0.00000417135061     0.02591033754587     0.04771422690259
    2    -0.22334332197219     0.98489845452749    -0.00002779618564    -0.14663808455690    -0.27129053523162
    3     0.00000417135061    -0.00002779618564     0.99999999899900    -0.00001148717899    -0.00002051014073
    4     0.02591033754587    -0.14663808455690    -0.00001148717899     0.42484392753200     0.10473031977783
    5     0.04771422690259    -0.27129053523162    -0.00002051014073     0.10473031977783     0.56125724732338
    6    -0.01410528139220    -0.01803270587049     0.00002495160699    -0.12378179117059     0.33701625022158
    7    -0.01392480347261    -0.01722484170196     0.00002532395274     0.35081279804504     0.07891317051699
    8    -0.00000001031546     0.00000006197863     0.00000000014735     0.00000018220054     0.00000004887281
    9     0.00000003412190    -0.00000020936956    -0.00000000080660    -0.00000077956653    -0.00000022118005
   10    -0.00000012618168     0.00000079417453     0.00000000003974     0.00000113271552     0.00000026701638
   11    -0.00000005619915     0.00000033372229    -0.00000000202902    -0.00000056713733    -0.00000024005879
   12    -0.00000012320902     0.00000077533461     0.00000000003888     0.00000112200850     0.00000025220684
   13     0.00000005159412    -0.00000025282617     0.00000000219533     0.00000067321327     0.00000028602732

                 6                   7                   8                   9                  10

    1    -0.01410528139220    -0.01392480347261    -0.00000001031546     0.00000003412190    -0.00000012618168
    2    -0.01803270587049    -0.01722484170196     0.00000006197863    -0.00000020936956     0.00000079417453
    3     0.00002495160699     0.00002532395274     0.00000000014735    -0.00000000080660     0.00000000003974
    4    -0.12378179117059     0.35081279804504     0.00000018220054    -0.00000077956653     0.00000113271552
    5     0.33701625022158     0.07891317051699     0.00000004887281    -0.00000022118005     0.00000026701638
    6     0.30065441457239    -0.09510784050686    -0.00000002083286     0.00000009481117    -0.00000011384638
    7    -0.09510784050686     0.30207262802034    -0.00000008005553     0.00000025126327    -0.00000125621032
    8    -0.00000002083286    -0.00000008005553     1.05920608726720    -0.24985506359091    -0.00000013681690
    9     0.00000009481117     0.00000025126327    -0.24985506359091     1.06121077942482     0.00000076660298
   10    -0.00000011384638    -0.00000125621032    -0.00000013681690     0.00000076660298     0.99999999999163
   11     0.00000010761038    -0.00000066470288     0.03074845311618    -0.15993420256789     0.00000187932396
   12    -0.00000009870923    -0.00000123878093    -0.00000026212534     0.00000146872303    -0.00000000001373
   13    -0.00000011420475     0.00000044651834     0.00164181569185    -0.05936638441206    -0.00000218125518

                11                  12                  13

    1    -0.00000005619915    -0.00000012320902     0.00000005159412
    2     0.00000033372229     0.00000077533461    -0.00000025282617
    3    -0.00000000202902     0.00000000003888     0.00000000219533
    4    -0.00000056713733     0.00000112200850     0.00000067321327
    5    -0.00000024005879     0.00000025220684     0.00000028602732
    6     0.00000010761038    -0.00000009870923    -0.00000011420475
    7    -0.00000066470288    -0.00000123878093     0.00000044651834
    8     0.03074845311618    -0.00000026212534     0.00164181569185
    9    -0.15993420256789     0.00000146872303    -0.05936638441206
   10     0.00000187932396    -0.00000000001373    -0.00000218125518
   11     0.47157895121374     0.00000360057115     0.40814326887917
   12     0.00000360057115     0.99999999997596    -0.00000417903722
   13     0.40814326887917    -0.00000417903722     0.35948516506492



 MINTS: Wrapper to libmints.
   by Justin Turney

   Calculation information:
      Number of atoms:                   5
      Number of AO shells:               9
      Number of SO shells:               9
      Number of primitives:             27
      Number of atomic orbitals:        13
      Number of basis functions:        13

      Number of irreps:                  1
      Integral cutoff                 1.00e-12
      Number of functions per irrep: [  13 ]

      Overlap, kinetic, potential, dipole, and quadrupole integrals
        stored in file 35.

      Computing two-electron integrals...done
      Computed 1577 non-zero two-electron integrals.
        Stored in file 33.

	Batch   1 pq = [       0,      91] index = [             0,4186]
 MINTS: Wrapper to libmints.
   by Justin Turney

   Calculation information:
      Number of atoms:                   5
      Number of AO shells:               9
      Number of SO shells:               9
      Number of primitives:             27
      Number of atomic orbitals:        13
      Number of basis functions:        13

      Number of irreps:                  1
      Integral cutoff                 1.00e-12
      Number of functions per irrep: [  13 ]

      Overlap, kinetic, potential, dipole, and quadrupole integrals
        stored in file 35.

      Computing two-electron integrals...done
      Computed 1577 non-zero two-electron integrals.
        Stored in file 33.

	Batch   1 pq = [       0,      91] index = [             0,4186]
 MINTS: Wrapper to libmints.
   by Justin Turney

   Calculation information:
      Number of atoms:                   5
      Number of AO shells:               9
      Number of SO shells:               9
      Number of primitives:             27
      Number of atomic orbitals:        13
      Number of basis functions:        13

      Number of irreps:                  1
      Integral cutoff                 1.00e-12
      Number of functions per irrep: [  13 ]

      Overlap, kinetic, potential, dipole, and quadrupole integrals
        stored in file 35.

      Computing two-electron integrals...done
      Computed 1577 non-zero two-electron integrals.
        Stored in file 33.

	Batch   1 pq = [       0,      91] index = [             0,4186]
  ==> DiskJK: Disk-Based J/K Matrices <==

    J tasked:                  Yes
    K tasked:                  Yes
    wK tasked:                  No
    Memory (MB):              7629
    Schwarz Cutoff:          1E-12

  ==> DiskJK: Disk-Based J/K Matrices <==

    J tasked:                  Yes
    K tasked:                  Yes
    wK tasked:                  No
    Memory (MB):              7629
    Schwarz Cutoff:          1E-12

  ==> DiskJK: Disk-Based J/K Matrices <==

    J tasked:                  Yes
    K tasked:                  Yes
    wK tasked:                  No
    Memory (MB):              7629
    Schwarz Cutoff:          1E-12

  ## C (Symmetry 0) ##
  Irrep: 1 Size: 13 x 13

                 1                   2                   3                   4                   5

    1     0.92321148655472     0.31358570793682    -0.07455010138987     0.30711292366615    -0.05148708837953
    2    -0.05300226105772    -0.86512042962792     0.09383560048868     0.38470335512227     0.27722565849491
    3     0.02946346505293    -0.17370274368675    -0.97319948847112    -0.14777618200186    -0.00205322533609
    4    -0.03952558902803     0.00326128022010    -0.01384003111330     0.08846247388321    -0.64440194261481
    5     0.27497440424691    -0.05709538222525     0.11478325456593    -0.63011225857048    -0.26864435175769
    6     0.20380917081230    -0.14961924283848     0.10274899143510    -0.46190442698848     0.11321335488853
    7    -0.03966160892027    -0.10528128163195     0.00446046741385     0.09365856013617    -0.52973919514839
    8     0.00000000000288     0.00000000000498    -0.00000000000157    -0.00000000002241    -0.00000006722278
    9    -0.00000000001613    -0.00000000002791     0.00000000000879     0.00000000012559     0.00000037665830
   10     0.00000000000000    -0.00000000000000    -0.00000000000000    -0.00000000000000    -0.00000000000290
   11    -0.00000000003954    -0.00000000006842     0.00000000002154     0.00000000030788     0.00000092337774
   12     0.00000000000000     0.00000000000000    -0.00000000000000    -0.00000000000000    -0.00000000000555
   13     0.00000000004589     0.00000000007942    -0.00000000002500    -0.00000000035735    -0.00000107172723

                 6                   7                   8                   9                  10

    1    -0.00000018144842     0.00000002770167    -0.00000000456952    -0.00000000015148     0.00000000949278
    2     0.00000112873296    -0.00000021428453     0.00000003616581     0.00000000118751    -0.00000007430329
    3     0.00000000007118     0.00000000007576     0.00000000002604     0.00000000000037     0.00000000007513
    4     0.00000167058297    -0.00000015617707     0.00000003136795     0.00000000108374    -0.00000006110180
    5     0.00000038300982    -0.00000004344583     0.00000000275707     0.00000000008512    -0.00000000930121
    6    -0.00000015934566     0.00000001081329     0.00000000355418     0.00000000026335    -0.00000000536145
    7    -0.00000176559490     0.00000042618249    -0.00000007845972    -0.00000000271013     0.00000015823443
    8     0.09425070720505     0.13751792924749    -0.15463233686334     0.99777748116323    -0.10927327703404
    9    -0.36334145413741    -0.50417171532904     0.66498258997562     0.00928542636826     0.48240707341274
   10     0.65923939491943    -0.46010721285399    -0.34175292431921     0.00148305938864     0.48673145790236
   11    -0.03660875051050    -0.41856408606671    -0.21654096052196     0.00385044694274    -0.49813456307373
   12     0.64983809688289     0.04560419673966     0.66050826709463    -0.00618425370557    -0.37325767126889
   13    -0.06123615625898    -0.41305260211603    -0.14097673378980    -0.00200839270196    -0.40650261131300

                11                  12                  13

    1    -0.08837539220529    -0.09785723486638     0.00000017675505
    2     0.59109354870477     0.65015288607283    -0.00000123801587
    3     0.00002087460013     0.00002377493742     0.00000000268837
    4    -0.40934699805922     0.84257356982839    -0.00000001512556
    5     0.78864722988745     0.17023999216834     0.00000023678516
    6    -1.15657445612109    -0.03400966643734    -0.00000024835683
    7     0.09186737534383    -1.14581363533144     0.00000261693283
    8     0.00000000390527    -0.00000023561201    -0.05635205194225
    9    -0.00000001387979     0.00000090829785     0.31574813993484
   10    -0.00000001439097    -0.00000164801342    -0.00000242788911
   11    -0.00000001650055     0.00000009150400     0.77405649174848
   12     0.00000000213650    -0.00000162450978    -0.00000465156040
   13    -0.00000001581204     0.00000015307005    -0.89841608300668




nAocc = 5	
 nBocc = 5 
  ## CAocc (Symmetry 0) ##
  Irrep: 1 Size: 13 x 5

                 1                   2                   3                   4                   5

    1     0.92321148655472     0.31358570793682    -0.07455010138987     0.30711292366615    -0.05148708837953
    2    -0.05300226105772    -0.86512042962792     0.09383560048868     0.38470335512227     0.27722565849491
    3     0.02946346505293    -0.17370274368675    -0.97319948847112    -0.14777618200186    -0.00205322533609
    4    -0.03952558902803     0.00326128022010    -0.01384003111330     0.08846247388321    -0.64440194261481
    5     0.27497440424691    -0.05709538222525     0.11478325456593    -0.63011225857048    -0.26864435175769
    6     0.20380917081230    -0.14961924283848     0.10274899143510    -0.46190442698848     0.11321335488853
    7    -0.03966160892027    -0.10528128163195     0.00446046741385     0.09365856013617    -0.52973919514839
    8     0.00000000000288     0.00000000000498    -0.00000000000157    -0.00000000002241    -0.00000006722278
    9    -0.00000000001613    -0.00000000002791     0.00000000000879     0.00000000012559     0.00000037665830
   10     0.00000000000000    -0.00000000000000    -0.00000000000000    -0.00000000000000    -0.00000000000290
   11    -0.00000000003954    -0.00000000006842     0.00000000002154     0.00000000030788     0.00000092337774
   12     0.00000000000000     0.00000000000000    -0.00000000000000    -0.00000000000000    -0.00000000000555
   13     0.00000000004589     0.00000000007942    -0.00000000002500    -0.00000000035735    -0.00000107172723



  ## CBocc (Symmetry 0) ##
  Irrep: 1 Size: 13 x 5

                 1                   2                   3                   4                   5

    1    -0.00000018144842     0.00000002770167    -0.00000000456952    -0.00000000015148     0.00000000949278
    2     0.00000112873296    -0.00000021428453     0.00000003616581     0.00000000118751    -0.00000007430329
    3     0.00000000007118     0.00000000007576     0.00000000002604     0.00000000000037     0.00000000007513
    4     0.00000167058297    -0.00000015617707     0.00000003136795     0.00000000108374    -0.00000006110180
    5     0.00000038300982    -0.00000004344583     0.00000000275707     0.00000000008512    -0.00000000930121
    6    -0.00000015934566     0.00000001081329     0.00000000355418     0.00000000026335    -0.00000000536145
    7    -0.00000176559490     0.00000042618249    -0.00000007845972    -0.00000000271013     0.00000015823443
    8     0.09425070720505     0.13751792924749    -0.15463233686334     0.99777748116323    -0.10927327703404
    9    -0.36334145413741    -0.50417171532904     0.66498258997562     0.00928542636826     0.48240707341274
   10     0.65923939491943    -0.46010721285399    -0.34175292431921     0.00148305938864     0.48673145790236
   11    -0.03660875051050    -0.41856408606671    -0.21654096052196     0.00385044694274    -0.49813456307373
   12     0.64983809688289     0.04560419673966     0.66050826709463    -0.00618425370557    -0.37325767126889
   13    -0.06123615625898    -0.41305260211603    -0.14097673378980    -0.00200839270196    -0.40650261131300



  ## CBocc (Symmetry 0) ##
  Irrep: 1 Size: 13 x 10

                 1                   2                   3                   4                   5

    1     0.92321148655472     0.31358570793682    -0.07455010138987     0.30711292366615    -0.05148708837953
    2    -0.05300226105772    -0.86512042962792     0.09383560048868     0.38470335512227     0.27722565849491
    3     0.02946346505293    -0.17370274368675    -0.97319948847112    -0.14777618200186    -0.00205322533609
    4    -0.03952558902803     0.00326128022010    -0.01384003111330     0.08846247388321    -0.64440194261481
    5     0.27497440424691    -0.05709538222525     0.11478325456593    -0.63011225857048    -0.26864435175769
    6     0.20380917081230    -0.14961924283848     0.10274899143510    -0.46190442698848     0.11321335488853
    7    -0.03966160892027    -0.10528128163195     0.00446046741385     0.09365856013617    -0.52973919514839
    8     0.00000000000288     0.00000000000498    -0.00000000000157    -0.00000000002241    -0.00000006722278
    9    -0.00000000001613    -0.00000000002791     0.00000000000879     0.00000000012559     0.00000037665830
   10     0.00000000000000    -0.00000000000000    -0.00000000000000    -0.00000000000000    -0.00000000000290
   11    -0.00000000003954    -0.00000000006842     0.00000000002154     0.00000000030788     0.00000092337774
   12     0.00000000000000     0.00000000000000    -0.00000000000000    -0.00000000000000    -0.00000000000555
   13     0.00000000004589     0.00000000007942    -0.00000000002500    -0.00000000035735    -0.00000107172723

                 6                   7                   8                   9                  10

    1    -0.00000018144842     0.00000002770167    -0.00000000456952    -0.00000000015148     0.00000000949278
    2     0.00000112873296    -0.00000021428453     0.00000003616581     0.00000000118751    -0.00000007430329
    3     0.00000000007118     0.00000000007576     0.00000000002604     0.00000000000037     0.00000000007513
    4     0.00000167058297    -0.00000015617707     0.00000003136795     0.00000000108374    -0.00000006110180
    5     0.00000038300982    -0.00000004344583     0.00000000275707     0.00000000008512    -0.00000000930121
    6    -0.00000015934566     0.00000001081329     0.00000000355418     0.00000000026335    -0.00000000536145
    7    -0.00000176559490     0.00000042618249    -0.00000007845972    -0.00000000271013     0.00000015823443
    8     0.09425070720505     0.13751792924749    -0.15463233686334     0.99777748116323    -0.10927327703404
    9    -0.36334145413741    -0.50417171532904     0.66498258997562     0.00928542636826     0.48240707341274
   10     0.65923939491943    -0.46010721285399    -0.34175292431921     0.00148305938864     0.48673145790236
   11    -0.03660875051050    -0.41856408606671    -0.21654096052196     0.00385044694274    -0.49813456307373
   12     0.64983809688289     0.04560419673966     0.66050826709463    -0.00618425370557    -0.37325767126889
   13    -0.06123615625898    -0.41305260211603    -0.14097673378980    -0.00200839270196    -0.40650261131300



  ## GA (Symmetry 0) ##
  Irrep: 1 Size: 13 x 13

                 1                   2                   3                   4                   5

    1    12.48381585437479     2.44887249013409    -0.00000178513880    -0.00499461480755    -0.00914944975005
    2     2.44887249013409     6.88640477111255    -0.00000048983213     0.04654281745070     0.08505466224511
    3    -0.00000178513880    -0.00000048983213     7.06380811386300     0.00000433391176     0.00000764173852
    4    -0.00499461480755     0.04654281745070     0.00000433391176     7.27219611964733    -0.03930072166165
    5    -0.00914944975005     0.08505466224511     0.00000764173852    -0.03930072166165     7.21928133312410
    6     0.55413323531111     2.71663024542943    -0.00000540296286    -0.82183486056693     1.90357465088151
    7     0.54511408938646     2.68651512323270    -0.00000547453916     2.02717006879675     0.33997392410639
    8    -0.00000000000613     0.00000000000489    -0.00000000000209    -0.00000000055294    -0.00000000016082
    9     0.00000000023830    -0.00000000415634    -0.00000000017645    -0.00000001505728    -0.00000000226644
   10    -0.00000000023945     0.00000000488084     0.00000000020663     0.00000002138363     0.00000000374736
   11     0.00000000031015     0.00000000443464     0.00000000043760     0.00000007528842     0.00000001975955
   12    -0.00000000023514     0.00000000478508     0.00000000022866     0.00000002120067     0.00000000352190
   13     0.00000000018098    -0.00000001581378    -0.00000000057307    -0.00000011747408    -0.00000002674610

                 6                   7                   8                   9                  10

    1     0.55413323531111     0.54511408938646    -0.00000000000613     0.00000000023830    -0.00000000023945
    2     2.71663024542943     2.68651512323270     0.00000000000489    -0.00000000415634     0.00000000488084
    3    -0.00000540296286    -0.00000547453916    -0.00000000000209    -0.00000000017645     0.00000000020663
    4    -0.82183486056693     2.02717006879675    -0.00000000055294    -0.00000001505728     0.00000002138363
    5     1.90357465088151     0.33997392410639    -0.00000000016082    -0.00000000226644     0.00000000374736
    6     4.49731824803670     1.20645303777354     0.00000000005644     0.00000001402797    -0.00000001689166
    7     1.20645303777354     4.48060710397034     0.00000000014543     0.00000035728077    -0.00000042129053
    8     0.00000000005644     0.00000000014543     0.85805070035499     0.20420738506771    -0.00162484905813
    9     0.00000001402797     0.00000035728077     0.20420738506771     0.85805070035431    -0.02033081694613
   10    -0.00000001689166    -0.00000042129053    -0.00162484905813    -0.02033081694613     0.85763459861670
   11    -0.00000003182631    -0.00000045908514    -0.00239331934902    -0.02994625090595     0.00153853805576
   12    -0.00000001314153    -0.00000041598970    -0.00164588380052    -0.02059401277642     0.00106254435953
   13     0.00000007133668     0.00000135668529     0.02152578205055     0.23154149682259    -0.00558179711593

                11                  12                  13

    1     0.00000000031015    -0.00000000023514     0.00000000018098
    2     0.00000000443464     0.00000000478508    -0.00000001581378
    3     0.00000000043760     0.00000000022866    -0.00000000057307
    4     0.00000007528842     0.00000002120067    -0.00000011747408
    5     0.00000001975955     0.00000000352190    -0.00000002674610
    6    -0.00000003182631    -0.00000001314153     0.00000007133668
    7    -0.00000045908514    -0.00000041598970     0.00000135668529
    8    -0.00239331934902    -0.00164588380052     0.02152578205055
    9    -0.02994625090595    -0.02059401277642     0.23154149682259
   10     0.00153853805576     0.00106254435953    -0.00558179711593
   11     0.85885213876892     0.00155526249967     0.19167393062955
   12     0.00155526249967     0.85766536367698    -0.00565524924781
   13     0.19167393062955    -0.00565524924781     0.74747948875788



  ## H (Symmetry 0) ##
  Irrep: 1 Size: 13 x 13

                 1                   2                   3                   4                   5

    1   -32.71519250395254    -7.61144993060570     0.00001003450293    -0.00888301579238    -0.01668234905827
    2    -7.61144993060570    -9.32943415870316     0.00012667072962    -0.10491834921542    -0.19628160164566
    3     0.00001003450293     0.00012667072962    -7.45290007499630     0.00001189278569     0.00001019568992
    4    -0.00888301579238    -0.10491834921542     0.00001189278569    -7.59280752174177     0.02632654303671
    5    -0.01668234905827    -0.19628160164566     0.00001019568992     0.02632654303671    -7.56106421246118
    6    -1.74966020574359    -3.74006475838194     0.00006271391419     0.99305989962925    -2.41559856203915
    7    -1.72165683816135    -3.69863259835236     0.00006866499450    -2.54725587750367    -0.47354598659122
    8     0.00000000000566    -0.00000000005892    -0.00000000000203    -0.00000000034272    -0.00000000006410
    9    -0.00000000035292     0.00000000707618     0.00000000022782     0.00000003290355     0.00000000657572
   10     0.00000000062191    -0.00000001196318    -0.00000000037169    -0.00000005549865    -0.00000001260192
   11    -0.00000000005413     0.00000000071112     0.00000000001013     0.00000000384173     0.00000000010360
   12     0.00000000060757    -0.00000001170185    -0.00000000038934    -0.00000005501654    -0.00000001189154
   13    -0.00000000016829     0.00000000196343    -0.00000000117198     0.00000001231977     0.00000000111239

                 6                   7                   8                   9                  10

    1    -1.74966020574359    -1.72165683816135     0.00000000000566    -0.00000000035292     0.00000000062191
    2    -3.74006475838194    -3.69863259835236    -0.00000000005892     0.00000000707618    -0.00000001196318
    3     0.00006271391419     0.00006866499450    -0.00000000000203     0.00000000022782    -0.00000000037169
    4     0.99305989962925    -2.54725587750367    -0.00000000034272     0.00000003290355    -0.00000005549865
    5    -2.41559856203915    -0.47354598659122    -0.00000000006410     0.00000000657572    -0.00000001260192
    6    -5.07420068430357    -1.59639862763039    -0.00000000025446    -0.00000006985108     0.00000008178516
    7    -1.59639862763039    -5.04812571351691    -0.00000002384168    -0.00000160595470     0.00000175100189
    8    -0.00000000025446    -0.00000002384168   -26.77562057124649    -6.83005751637781     0.00164886556340
    9    -0.00000006985108    -0.00000160595470    -6.83005751637781    -3.88033670708833     0.02063049402047
   10     0.00000008178516     0.00000175100189     0.00164886556340     0.02063049402047    -1.32384974695077
   11     0.00000010779274     0.00000186266867    -0.01371230638126     0.00086798874524    -0.00156868628411
   12     0.00000006353672     0.00000172747882     0.00165220911363     0.02067157174205    -0.00107922820424
   13    -0.00000016959751    -0.00000348733734    -0.73677008058223    -0.92361892003130     0.00566193650190

                11                  12                  13

    1    -0.00000000005413     0.00000000060757    -0.00000000016829
    2     0.00000000071112    -0.00000001170185     0.00000000196343
    3     0.00000000001013    -0.00000000038934    -0.00000000117198
    4     0.00000000384173    -0.00000005501654     0.00000001231977
    5     0.00000000010360    -0.00000001189154     0.00000000111239
    6     0.00000010779274     0.00000006353672    -0.00000016959751
    7     0.00000186266867     0.00000172747882    -0.00000348733734
    8    -0.01371230638126     0.00165220911363    -0.73677008058223
    9     0.00086798874524     0.02067157174205    -0.92361892003130
   10    -0.00156868628411    -0.00107922820424     0.00566193650190
   11    -1.09155980077857    -0.00156813108981    -0.63805692704766
   12    -0.00156813108981    -1.32385926188897     0.00567542849173
   13    -0.63805692704766     0.00567542849173    -1.06511140805507





	Energy of system A =     -84.107414672054 

	

	Energy of system B =    -111.019085017743 

	

	 Embedded energy =    -173.486635970875 
 
	

	Energy of system  =    -173.486635970875 

	

	Error  =       0.000000000000 

	
*** PSI4 exiting successfully. Buy a developer a beer!
