    -----------------------------------------------------------------------
          PSI4: An Open-Source Ab Initio Electronic Structure Package
                              PSI 4.0 Driver

               Git: Rev {master} 556e8139d3cfa1f96ccffe2cdf22cc56a185d2b2

    J. M. Turney, A. C. Simmonett, R. M. Parrish, E. G. Hohenstein,
    F. A. Evangelista, J. T. Fermann, B. J. Mintz, L. A. Burns, J. J. Wilke,
    M. L. Abrams, N. J. Russ, M. L. Leininger, C. L. Janssen, E. T. Seidl,
    W. D. Allen, H. F. Schaefer, R. A. King, E. F. Valeev, C. D. Sherrill,
    and T. D. Crawford, WIREs Comput. Mol. Sci. 2, 556-565 (2012)
    (doi: 10.1002/wcms.93)

                         Additional Contributions by
    A. E. DePrince, M. Saitow, U. Bozkaya, A. Yu. Sokolov
    -----------------------------------------------------------------------

    Process ID:  48820
    PSI4DATADIR: /Users/kevinhannon/Programs/psi4cmake/psi4/lib
    Memory level set to 256.000 MB

  ==> Input File <==

--------------------------------------------------------------------------

# PYTHONPATH must include directory above plugin directory.
#     Define either externally or here, then import plugin.


# Path to plugin_prop.so
objdir = '/Users/kevinhannon/Programs/PsiPlugins_psi4public/plugin_prop'
# Path to data directory
datadir = 'data/'

import sys
sys.path.append(objdir)
import prop

sys.path.insert(0, './..')

import plugin_fragment

#molecule {
##O         -1.485163346097    -0.114724564047     0.000000000000
##H         -1.868415346097     0.762298435953     0.000000000000
#H         -0.533833346097     0.040507435953     0.000000000000
#--
##H        8.200             7.000             7.000
#units angstrom
#symmetry c1
#}

#molecule {
#H        200000000.00               200000000.000             200000000.000
#H        200000001.00               200000000.000             200000000.000
#--
#H        -1003.000             -1003.000             -1003.000
#H        -1002.000             -1003.000             -1003.000
#units angstrom
#symmetry c1
#}
molecule {
O         -1.485163346097    -0.114724564047     0.000000000000
H         -1.868415346097     0.762298435953     0.000000000000
H         -0.533833346097     0.040507435953     0.000000000000
--
F        3.000             3.000             3.000
H        4.200             3.000             3.000
##F        7.000             7.000             7.000
symmetry c1
units angstrom
}


set {
  basis sto-3g
  r_convergence 1e-12
  d_convergence 1e-12
  LocalCut  0.02
  reference rhf
  SCF_type PK
#  property_filepath 'data'
#  property_tasks ['ORBITALS']
#  property_orbitals [] #1,2,3,4,5,6,7,8,9,10,11,12,13,14,15,16,17,18,19,20,21,22,23,24,25,26,27,28,29,30,31,32,33]
  freeze_core false
}

set plugin_fragment {
  print 3
}

energy('scf')
energy('plugin_fragment')
#energy('ccsd')
#print cc2
#print scf
#cc2newH = energy('conv-mp2')
#energy('prop')
#plugin_local.exampleFN()

--------------------------------------------------------------------------

*** tstart() called on Kevins-MacBook-Pro.local
*** at Wed Jan  7 14:37:19 2015

/Users/kevinhannon/Programs/PsiPlugins_psi4public/plugin_prop/plugin_prop.so loaded.
/Users/kevinhannon/Programs/Quantum_Programs/Quantum-Programs/plugin_fragment/plugin_fragment.so loaded.

*** tstart() called on Kevins-MacBook-Pro.local
*** at Wed Jan  7 14:37:19 2015

    There are an even number of electrons - assuming singlet.
    Specify the multiplicity with the MULTP option in the
    input if this is incorrect


         ---------------------------------------------------------
                                   SCF
            by Justin Turney, Rob Parrish, and Andy Simmonett
                              RHF Reference
                        1 Threads,    256 MiB Core
         ---------------------------------------------------------

  ==> Geometry <==

    Molecular point group: c1
    Full point group: C1

    Geometry (in Angstrom), charge = 0, multiplicity = 1:

       Center              X                  Y                   Z       
    ------------   -----------------  -----------------  -----------------
           O         -2.407176088730    -1.666479945112    -1.578741396290
           H         -2.790428088730    -0.789456945112    -1.578741396290
           H         -1.455846088730    -1.511247945112    -1.578741396290
           F          2.077987257367     1.448244618935     1.421258603710
           H          3.277987257367     1.448244618935     1.421258603710

  Running in c1 symmetry.

  Rotational constants: A =      9.04598  B =      0.04574  C =      0.04557 [cm^-1]
  Rotational constants: A = 271191.61763  B =   1371.33495  C =   1366.27736 [MHz]
  Nuclear repulsion =   21.639863718922200

  Charge       = 0
  Multiplicity = 1
  Electrons    = 20
  Nalpha       = 10
  Nbeta        = 10

  ==> Algorithm <==

  SCF Algorithm Type is PK.
  DIIS enabled.
  MOM disabled.
  Fractional occupation disabled.
  Guess Type is CORE.
  Energy threshold   = 1.00e-06
  Density threshold  = 1.00e-12
  Integral threshold = 0.00e+00

  ==> Primary Basis <==

  Basis Set: STO-3G
    Number of shells: 9
    Number of basis function: 13
    Number of Cartesian functions: 13
    Spherical Harmonics?: true
    Max angular momentum: 1

  ==> Pre-Iterations <==

   -------------------------------------------------------
    Irrep   Nso     Nmo     Nalpha   Nbeta   Ndocc  Nsocc
   -------------------------------------------------------
     A         13      13       0       0       0       0
   -------------------------------------------------------
    Total      13      13      10      10      10       0
   -------------------------------------------------------

  Starting with a DF guess...

 OEINTS: Overlap, kinetic, potential, dipole, and quadrupole integrals
         stored in file 35.

  ==> Integral Setup <==

  ==> DFJK: Density-Fitted J/K Matrices <==

    J tasked:                  Yes
    K tasked:                  Yes
    wK tasked:                  No
    OpenMP threads:              1
    Integrals threads:           1
    Memory (MB):               183
    Algorithm:                Core
    Integral Cache:           NONE
    Schwarz Cutoff:          1E-12
    Fitting Condition:       1E-12

   => Auxiliary Basis Set <=

  Basis Set: 
    Number of shells: 54
    Number of basis function: 154
    Number of Cartesian functions: 177
    Spherical Harmonics?: true
    Max angular momentum: 3

  Minimum eigenvalue in the overlap matrix is 3.4428950414E-01.
  Using Symmetric Orthogonalization.
  SCF Guess: Core (One-Electron) Hamiltonian.

  ==> Iterations <==

                           Total Energy        Delta E     RMS |[F,P]|

   @DF-RHF iter   1:  -171.13102588982559   -1.71131e+02   8.70416e-02 
   @DF-RHF iter   2:  -170.53949467009386    5.91531e-01   6.51174e-02 DIIS
   @DF-RHF iter   3:  -161.56387535425881    8.97562e+00   1.05672e-01 DIIS
   @DF-RHF iter   4:  -173.36435658043149   -1.18005e+01   2.92942e-02 DIIS
   @DF-RHF iter   5:  -173.46387148130071   -9.95149e-02   1.16834e-02 DIIS
   @DF-RHF iter   6:  -173.47592735185049   -1.20559e-02   8.14763e-03 DIIS
   @DF-RHF iter   7:  -173.47591968978890    7.66206e-06   8.58426e-03 DIIS
   @DF-RHF iter   8:  -173.47693836957916   -1.01868e-03   8.18931e-03 DIIS
   @DF-RHF iter   9:  -173.48499035873454   -8.05199e-03   4.06709e-03 DIIS
   @DF-RHF iter  10:  -173.48773513765047   -2.74478e-03   4.45813e-04 DIIS
   @DF-RHF iter  11:  -173.48775789462832   -2.27570e-05   1.53056e-04 DIIS
   @DF-RHF iter  12:  -173.48776143514596   -3.54052e-06   4.00806e-06 DIIS
   @DF-RHF iter  13:  -173.48776143703765   -1.89169e-09   1.35660e-07 DIIS
   @DF-RHF iter  14:  -173.48776143704680   -9.15179e-12   2.36132e-08 DIIS
   @DF-RHF iter  15:  -173.48776143704714   -3.41061e-13   3.03966e-09 DIIS
   @DF-RHF iter  16:  -173.48776143704708    5.68434e-14   6.19500e-10 DIIS
   @DF-RHF iter  17:  -173.48776143704697    1.13687e-13   1.45264e-10 DIIS
   @DF-RHF iter  18:  -173.48776143704703   -5.68434e-14   2.38986e-11 DIIS
   @DF-RHF iter  19:  -173.48776143704708   -5.68434e-14   6.80543e-12 DIIS
   @DF-RHF iter  20:  -173.48776143704703    5.68434e-14   2.13778e-12 DIIS
   @DF-RHF iter  21:  -173.48776143704714   -1.13687e-13   1.07507e-13 DIIS

  DF guess converged.

  ==> Integral Setup <==

 MINTS: Wrapper to libmints.
   by Justin Turney

   Calculation information:
      Number of atoms:                   5
      Number of AO shells:               9
      Number of SO shells:               9
      Number of primitives:             27
      Number of atomic orbitals:        13
      Number of basis functions:        13

      Number of irreps:                  1
      Integral cutoff                 0.00e+00
      Number of functions per irrep: [  13 ]

 OEINTS: Overlap, kinetic, potential, dipole, and quadrupole integrals
         stored in file 35.

      Computing two-electron integrals...done
      Computed 4077 non-zero two-electron integrals.
        Stored in file 33.

	Batch   1 pq = [       0,      91] index = [             0,4186]
  ==> DiskJK: Disk-Based J/K Matrices <==

    J tasked:                  Yes
    K tasked:                  Yes
    wK tasked:                  No
    Memory (MB):               183
    Schwarz Cutoff:          1E-12

   @RHF iter  22:  -173.48663596595418    1.12547e-03   9.64903e-06 DIIS
   @RHF iter  23:  -173.48663597082873   -4.87455e-09   6.09452e-07 DIIS
   @RHF iter  24:  -173.48663597086909   -4.03588e-11   1.55505e-07 DIIS
   @RHF iter  25:  -173.48663597087477   -5.68434e-12   5.09344e-08 DIIS
   @RHF iter  26:  -173.48663597087534   -5.68434e-13   4.51378e-09 DIIS
   @RHF iter  27:  -173.48663597087545   -1.13687e-13   2.27741e-10 DIIS
   @RHF iter  28:  -173.48663597087540    5.68434e-14   3.61667e-11 DIIS
   @RHF iter  29:  -173.48663597087540    0.00000e+00   1.80744e-11 DIIS
   @RHF iter  30:  -173.48663597087551   -1.13687e-13   4.26031e-12 DIIS
   @RHF iter  31:  -173.48663597087528    2.27374e-13   2.12784e-12 DIIS
   @RHF iter  32:  -173.48663597087534   -5.68434e-14   3.87862e-13 DIIS

  ==> Post-Iterations <==

    Orbital Energies (a.u.)
    -----------------------

    Doubly Occupied:                                                      

       1A    -25.926883     2A    -20.240189     3A     -1.421202  
       4A     -1.264822     5A     -0.613792     6A     -0.500406  
       7A     -0.466224     8A     -0.466185     9A     -0.451005  
      10A     -0.389092  

    Virtual:                                                              

      11A      0.384634    12A      0.604832    13A      0.740197  

    Final Occupation by Irrep:
              A 
    DOCC [    10 ]

  Energy converged.

  @RHF Final Energy:  -173.48663597087534

   => Energetics <=

    Nuclear Repulsion Energy =             21.6398637189222001
    One-Electron Energy =                -286.7733971042102326
    Two-Electron Energy =                  91.6468974144127344
    DFT Exchange-Correlation Energy =       0.0000000000000000
    Empirical Dispersion Energy =           0.0000000000000000
    Total Energy =                       -173.4866359708753123



Properties will be evaluated at   0.000000,   0.000000,   0.000000 Bohr
  ==> Properties <==


Properties computed using the SCF density matrix

  Nuclear Dipole Moment: (a.u.)
     X:    -2.8796      Y:    -2.1734      Z:    -2.9760

  Electronic Dipole Moment: (a.u.)
     X:     3.6203      Y:     2.7696      Z:     2.9760

  Dipole Moment: (a.u.)
     X:     0.7407      Y:     0.5962      Z:     0.0000     Total:     0.9508

  Dipole Moment: (Debye)
     X:     1.8826      Y:     1.5154      Z:     0.0000     Total:     2.4168


  Saving occupied orbitals to File 180.

*** tstop() called on Kevins-MacBook-Pro.local at Wed Jan  7 14:37:19 2015
Module time:
	user time   =       0.36 seconds =       0.01 minutes
	system time =       0.01 seconds =       0.00 minutes
	total time  =          0 seconds =       0.00 minutes
Total time:
	user time   =       0.37 seconds =       0.01 minutes
	system time =       0.02 seconds =       0.00 minutes
	total time  =          0 seconds =       0.00 minutes
Reading options from the PLUGIN_FRAGMENT block
Calling plugin plugin_fragment.so.
   => Loading Basis Set <=

    Role: BASIS
    Keyword: BASIS
    Name: STO-3G
    atoms 1      entry O          line    80 file /Users/kevinhannon/Programs/psi4cmake/psi4/lib/basis/sto-3g.gbs
    atoms 2-3, 5 entry H          line    18 file /Users/kevinhannon/Programs/psi4cmake/psi4/lib/basis/sto-3g.gbs
    atoms 4      entry F          line    90 file /Users/kevinhannon/Programs/psi4cmake/psi4/lib/basis/sto-3g.gbs



         ---------------------------------------------------------
                            ORBITAL LOCALIZATION
                        by Francesco A. Evangelista
         ---------------------------------------------------------

  ==> Details <==

    Number of fragments: 2
  Fragment contains 3 atoms
The number of basis functions on A are 7
The number of basis functions on B are 6number of electrons 10
 # lo #
 Irrep: 1
      1:  1.0000000
      2:  1.0000000
      3:  1.0000000
      4:  1.0000000
      5:  1.0000000
      6:  0.0000000
      7:  0.0000000
      8:  0.0000000
      9:  0.0000000
     10: -0.0000000


 # lv #
 Irrep: 1
      1:  1.0000000
      2:  1.0000000
      3:  0.0000000

  ## U (Symmetry 0) ##
  Irrep: 1 Size: 13 x 13

                 1                   2                   3                   4                   5

    1    -0.00000000003939     0.00000000012252    -0.00000000016061     0.00000000000249    -0.00000000080362
    2    -0.50189294570097    -0.66522314751580    -0.55252029631101    -0.01653457888788    -0.00543736426592
    3     0.00000046492248    -0.00000062193271     0.00000031461429    -0.00000000260680     0.00000077416055
    4     0.66360923247919    -0.70092686564960     0.24002418979464     0.00187850986915     0.10348514430698
    5    -0.43164586666181    -0.12075252907723     0.53109906342136    -0.02318346840189     0.71867724614194
    6     0.00000054705665     0.00000032911183    -0.00000089316674     0.00000004495531     0.00000013404544
    7     0.00001163695095     0.00000717788072    -0.00001940957403     0.00000086309648     0.00001688135605
    8    -0.00000325750028    -0.00000200259723     0.00000542461514    -0.00000024120124    -0.00000466631783
    9    -0.34724522392583    -0.22639810401715     0.59556655912350    -0.02653970398764    -0.68757601021714
   10    -0.02878988940418    -0.01850454491893     0.01854638933907     0.99924033635856    -0.00187235732385
   11     0.00000000000000     0.00000000000000     0.00000000000000     0.00000000000000     0.00000000000000
   12     0.00000000000000     0.00000000000000     0.00000000000000     0.00000000000000     0.00000000000000
   13     0.00000000000000     0.00000000000000     0.00000000000000     0.00000000000000     0.00000000000000

                 6                   7                   8                   9                  10

    1    -0.00073788070667    -0.00337743449316     0.00330800811079     0.99997891284240     0.00439083376796
    2    -0.00000000357143    -0.00000000161612    -0.00000000052433    -0.00000000003983     0.00000000048777
    3     0.37671066695561     0.61984253371480    -0.42830881066187     0.00615458220383    -0.53888587903738
    4    -0.00000013120992    -0.00000066382457     0.00000036668290    -0.00000000561675     0.00000052348281
    5     0.00000368805203    -0.00000194728602     0.00000035707592    -0.00000000948713     0.00000116399807
    6    -0.03592011596935    -0.62627889518969    -0.76680246247531     0.00099206642714    -0.13600547802755
    7     0.89076553383995    -0.37041499453622     0.26300787436847    -0.00140928193851    -0.01242443724155
    8    -0.25166453293492    -0.29385592306053     0.39922607798202     0.00115096353010    -0.83122251727263
    9     0.00002783032259    -0.00000865960723     0.00000354463844    -0.00000004721886     0.00000599831453
   10    -0.00000000262579     0.00000000485155     0.00000000430567    -0.00000000000031     0.00000000014479
   11     0.00000000000000     0.00000000000000     0.00000000000000     0.00000000000000     0.00000000000000
   12     0.00000000000000     0.00000000000000     0.00000000000000     0.00000000000000     0.00000000000000
   13     0.00000000000000     0.00000000000000     0.00000000000000     0.00000000000000     0.00000000000000

                11                  12                  13

    1     0.00000000000000     0.00000000000000     0.00000000000000
    2     0.00000000000000     0.00000000000000     0.00000000000000
    3     0.00000000000000     0.00000000000000     0.00000000000000
    4     0.00000000000000     0.00000000000000     0.00000000000000
    5     0.00000000000000     0.00000000000000     0.00000000000000
    6     0.00000000000000     0.00000000000000     0.00000000000000
    7     0.00000000000000     0.00000000000000     0.00000000000000
    8     0.00000000000000     0.00000000000000     0.00000000000000
    9     0.00000000000000     0.00000000000000     0.00000000000000
   10     0.00000000000000     0.00000000000000     0.00000000000000
   11    -0.00000253208700    -0.00001423707050    -0.99999999989545
   12    -0.64748391107979    -0.76207911973550     0.00001248925974
   13    -0.76207911983364     0.64748391104371    -0.00000728862346



  ## S_ao (Symmetry 0) ##
  Irrep: 1 Size: 13 x 13

                 1                   2                   3                   4                   5

    1     1.00000000000000    -0.00000000000000     0.00000000000000    -0.00000000000000    -0.00000000000000
    2    -0.00000000000000     1.00000000000000    -0.00000000000000    -0.00000000000000    -0.00000000000000
    3     0.00000000000000    -0.00000000000000     1.00000000000000    -0.00000000000000     0.00000000000000
    4    -0.00000000000000    -0.00000000000000    -0.00000000000000     1.00000000000000    -0.00000000000000
    5     0.00000000000000    -0.00000000000000     0.00000000000000    -0.00000000000000     1.00000000000000
    6    -0.00000000000000     0.00000000000000    -0.00000000000000     0.00000000000000    -0.00000000000000
    7     0.00000000000000    -0.00000000000000     0.00000000000000    -0.00000000000000    -0.00000000000000
    8    -0.00000000000000     0.00000000000000    -0.00000000000000    -0.00000000000000    -0.00000000000000
    9    -0.00000000000000    -0.00000000000000     0.00000000000000     0.00000000000000    -0.00000000000000
   10    -0.00000000000000    -0.00000000000000     0.00000000000000     0.00000000000000    -0.00000000000000
   11     0.00000000000000    -0.00000000000000     0.00000000000000    -0.00000000000000    -0.00000000000000
   12     0.00000000000000    -0.00000000000000     0.00000000000000    -0.00000000000000     0.00000000000000
   13     0.00000000000000    -0.00000000000000     0.00000000000000    -0.00000000000000    -0.00000000000000

                 6                   7                   8                   9                  10

    1    -0.00000000000000     0.00000000000000    -0.00000000000000    -0.00000000000000    -0.00000000000000
    2     0.00000000000000    -0.00000000000000     0.00000000000000    -0.00000000000000    -0.00000000000000
    3    -0.00000000000000     0.00000000000000    -0.00000000000000     0.00000000000000     0.00000000000000
    4     0.00000000000000    -0.00000000000000    -0.00000000000000     0.00000000000000     0.00000000000000
    5    -0.00000000000000    -0.00000000000000    -0.00000000000000    -0.00000000000000    -0.00000000000000
    6     1.00000000000000     0.00000000000000    -0.00000000000000    -0.00000000000000     0.00000000000000
    7     0.00000000000000     1.00000000000000     0.00000000000000    -0.00000000000000    -0.00000000000000
    8    -0.00000000000000     0.00000000000000     1.00000000000000    -0.00000000000000    -0.00000000000000
    9    -0.00000000000000    -0.00000000000000    -0.00000000000000     1.00000000000000     0.00000000000000
   10     0.00000000000000    -0.00000000000000    -0.00000000000000     0.00000000000000     1.00000000000000
   11     0.00000000000000    -0.00000000000000     0.00000000000000     0.00000000000000    -0.00000000000000
   12     0.00000000000000    -0.00000000000000    -0.00000000000000     0.00000000000000     0.00000000000000
   13    -0.00000000000000    -0.00000000000000     0.00000000000000     0.00000000000000     0.00000000000000

                11                  12                  13

    1     0.00000000000000     0.00000000000000     0.00000000000000
    2    -0.00000000000000    -0.00000000000000    -0.00000000000000
    3     0.00000000000000     0.00000000000000     0.00000000000000
    4    -0.00000000000000    -0.00000000000000    -0.00000000000000
    5    -0.00000000000000     0.00000000000000    -0.00000000000000
    6     0.00000000000000     0.00000000000000    -0.00000000000000
    7    -0.00000000000000    -0.00000000000000    -0.00000000000000
    8     0.00000000000000    -0.00000000000000     0.00000000000000
    9     0.00000000000000     0.00000000000000     0.00000000000000
   10    -0.00000000000000     0.00000000000000     0.00000000000000
   11     1.00000000000000     0.00000000000000    -0.00000000000000
   12     0.00000000000000     1.00000000000000    -0.00000000000000
   13    -0.00000000000000    -0.00000000000000     1.00000000000000



  ## C (Symmetry 0) ##
  Irrep: 1 Size: 13 x 13

                 1                   2                   3                   4                   5

    1    -0.38065779160237    -0.84804803573241    -0.43139894387272    -0.01881496696217    -0.05135712146502
    2    -0.37844554847696     0.68956931316663    -0.53751336798573     0.01258454267317     0.27765552799447
    3    -0.02879133182297    -0.01866290202557     0.01874083481784     0.99923347018067    -0.00200186909345
    4     0.05916872163269     0.02031455175253    -0.07559019038518     0.00219955422974    -0.64436914418299
    5    -0.44000272929847    -0.11212824137581     0.53118016027455    -0.02529379959914    -0.26886793050052
    6    -0.39146002187162    -0.00053102554372     0.36647582180966    -0.01791102831129     0.11308338054029
    7    -0.00690858134181     0.10402564033541    -0.10317949150049     0.00264320242855    -0.52967024806790
    8    -0.00000000001478     0.00000000000521    -0.00000000001188     0.00000000000741    -0.00000006722278
    9     0.00000000008280    -0.00000000002921     0.00000000006656    -0.00000000004152     0.00000037665831
   10    -0.00000000000000     0.00000000000000    -0.00000000000000     0.00000000000000    -0.00000000000290
   11     0.00000000020299    -0.00000000007160     0.00000000016316    -0.00000000010179     0.00000092337775
   12    -0.00000000000000     0.00000000000000    -0.00000000000000     0.00000000000000    -0.00000000000555
   13    -0.00000000023560     0.00000000008311    -0.00000000018938     0.00000000011814    -0.00000107172724

                 6                   7                   8                   9                  10

    1    -0.00000018144866     0.00000002760695     0.00000000703513    -0.00000000017533    -0.00000000816357
    2     0.00000112873483    -0.00000021352479    -0.00000005509515     0.00000000137730     0.00000006413868
    3     0.00000000007118     0.00000000007962     0.00000000007552     0.00000000000062     0.00000000000446
    4     0.00000167058441    -0.00000015549358    -0.00000004584688     0.00000000125330     0.00000005313441
    5     0.00000038301014    -0.00000004342314    -0.00000000653568     0.00000000009469     0.00000000728864
    6    -0.00000015934566     0.00000001085804    -0.00000000494609     0.00000000028613     0.00000000399100
    7    -0.00000176559873     0.00000042455390     0.00000011836720    -0.00000000312730    -0.00000013620870
    8     0.09424950003958     0.12274284317477    -0.14833645186689     0.99657473037815    -0.14174772406678
    9    -0.36333713089538    -0.44304778006909     0.63661045534829     0.01436168498653     0.57221188685569
   10     0.65923715512037    -0.46698959168022     0.42150149837897    -0.00067771122527    -0.41190183555619
   11    -0.03660488586578    -0.44733343919906    -0.51394904535187     0.00190898723444    -0.07735995260850
   12     0.64984406724553     0.07866169100068    -0.22346904266325    -0.00168698608421     0.72220064224548
   13    -0.06123236847229    -0.43391531249944    -0.40848939525128    -0.00334172990721    -0.02405224525979

                11                  12                  13

    1    -0.08839631887546    -0.09783833181520     0.00000017675505
    2     0.59123258314838     0.65002645424045    -0.00000123801587
    3     0.00002087968324     0.00002377047144     0.00000000268837
    4    -0.40916678779370     0.84266109745276    -0.00000001512556
    5     0.78868362101638     0.17007132057799     0.00000023678516
    6    -1.15658170330507    -0.03376230949979    -0.00000024835683
    7     0.09162231849581    -1.14583325676882     0.00000261693283
    8     0.00000000385488    -0.00000023561284    -0.05635205194220
    9    -0.00000001368553     0.00000090830080     0.31574813993466
   10    -0.00000001474343    -0.00000164801031    -0.00000242788975
   11    -0.00000001648098     0.00000009150752     0.77405649174850
   12     0.00000000178907    -0.00000162451020    -0.00000465155763
   13    -0.00000001577930     0.00000015307343    -0.89841608300668



  ## DF (Symmetry 0) ##
  Irrep: 1 Size: 13 x 13

                 1                   2                   3                   4                   5

    1     1.05318243089868    -0.22334332197229     0.00000417135041     0.02591033754579     0.04771422690257
    2    -0.22334332197229     0.98489845452799    -0.00002779618432    -0.14663808455655    -0.27129053523163
    3     0.00000417135041    -0.00002779618432     0.99999999899900    -0.00001148717863    -0.00002051013965
    4     0.02591033754579    -0.14663808455655    -0.00001148717863     0.42484392753176     0.10473031977781
    5     0.04771422690257    -0.27129053523163    -0.00002051013965     0.10473031977781     0.56125724732337
    6    -0.01410528139215    -0.01803270587067     0.00002495160562    -0.12378179117091     0.33701625022148
    7    -0.01392480347254    -0.01722484170221     0.00002532395171     0.35081279804502     0.07891317051739
    8    -0.00000001031546     0.00000006197863     0.00000000014735     0.00000018220054     0.00000004887281
    9     0.00000003412190    -0.00000020936956    -0.00000000080660    -0.00000077956653    -0.00000022118005
   10    -0.00000012618168     0.00000079417453     0.00000000003974     0.00000113271552     0.00000026701638
   11    -0.00000005619915     0.00000033372229    -0.00000000202902    -0.00000056713733    -0.00000024005879
   12    -0.00000012320902     0.00000077533461     0.00000000003888     0.00000112200851     0.00000025220684
   13     0.00000005159412    -0.00000025282617     0.00000000219533     0.00000067321327     0.00000028602732

                 6                   7                   8                   9                  10

    1    -0.01410528139215    -0.01392480347254    -0.00000001031546     0.00000003412190    -0.00000012618168
    2    -0.01803270587067    -0.01722484170221     0.00000006197863    -0.00000020936956     0.00000079417453
    3     0.00002495160562     0.00002532395171     0.00000000014735    -0.00000000080660     0.00000000003974
    4    -0.12378179117091     0.35081279804502     0.00000018220054    -0.00000077956653     0.00000113271552
    5     0.33701625022148     0.07891317051739     0.00000004887281    -0.00000022118005     0.00000026701638
    6     0.30065441457253    -0.09510784050697    -0.00000002083286     0.00000009481117    -0.00000011384638
    7    -0.09510784050697     0.30207262802037    -0.00000008005553     0.00000025126327    -0.00000125621032
    8    -0.00000002083286    -0.00000008005553     1.05920608726720    -0.24985506359094    -0.00000013681694
    9     0.00000009481117     0.00000025126327    -0.24985506359094     1.06121077942493     0.00000076660318
   10    -0.00000011384638    -0.00000125621032    -0.00000013681694     0.00000076660318     0.99999999999163
   11     0.00000010761038    -0.00000066470288     0.03074845311614    -0.15993420256776     0.00000187932446
   12    -0.00000009870923    -0.00000123878093    -0.00000026212518     0.00000146872216    -0.00000000001373
   13    -0.00000011420476     0.00000044651834     0.00164181569189    -0.05936638441222    -0.00000218125576

                11                  12                  13

    1    -0.00000005619915    -0.00000012320902     0.00000005159412
    2     0.00000033372229     0.00000077533461    -0.00000025282617
    3    -0.00000000202902     0.00000000003888     0.00000000219533
    4    -0.00000056713733     0.00000112200851     0.00000067321327
    5    -0.00000024005879     0.00000025220684     0.00000028602732
    6     0.00000010761038    -0.00000009870923    -0.00000011420476
    7    -0.00000066470288    -0.00000123878093     0.00000044651834
    8     0.03074845311614    -0.00000026212518     0.00164181569189
    9    -0.15993420256776     0.00000146872216    -0.05936638441222
   10     0.00000187932446    -0.00000000001373    -0.00000218125576
   11     0.47157895121370     0.00000360056901     0.40814326887919
   12     0.00000360056901     0.99999999997596    -0.00000417903473
   13     0.40814326887919    -0.00000417903473     0.35948516506493



   => Loading Basis Set <=

    Role: BASIS
    Keyword: BASIS
    Name: STO-3G
    atoms 1      entry O          line    80 file /Users/kevinhannon/Programs/psi4cmake/psi4/lib/basis/sto-3g.gbs
    atoms 2-3, 5 entry H          line    18 file /Users/kevinhannon/Programs/psi4cmake/psi4/lib/basis/sto-3g.gbs
    atoms 4      entry F          line    90 file /Users/kevinhannon/Programs/psi4cmake/psi4/lib/basis/sto-3g.gbs

   => Loading Basis Set <=

    Role: BASIS
    Keyword: BASIS
    Name: STO-3G
    atoms 1      entry O          line    80 file /Users/kevinhannon/Programs/psi4cmake/psi4/lib/basis/sto-3g.gbs
    atoms 2-3, 5 entry H          line    18 file /Users/kevinhannon/Programs/psi4cmake/psi4/lib/basis/sto-3g.gbs
    atoms 4      entry F          line    90 file /Users/kevinhannon/Programs/psi4cmake/psi4/lib/basis/sto-3g.gbs

   => Loading Basis Set <=

    Role: BASIS
    Keyword: BASIS
    Name: STO-3G
    atoms 1      entry O          line    80 file /Users/kevinhannon/Programs/psi4cmake/psi4/lib/basis/sto-3g.gbs
    atoms 2-3, 5 entry H          line    18 file /Users/kevinhannon/Programs/psi4cmake/psi4/lib/basis/sto-3g.gbs
    atoms 4      entry F          line    90 file /Users/kevinhannon/Programs/psi4cmake/psi4/lib/basis/sto-3g.gbs

   => Loading Basis Set <=

    Role: BASIS
    Keyword: BASIS
    Name: STO-3G
    atoms 1      entry O          line    80 file /Users/kevinhannon/Programs/psi4cmake/psi4/lib/basis/sto-3g.gbs
    atoms 2-3, 5 entry H          line    18 file /Users/kevinhannon/Programs/psi4cmake/psi4/lib/basis/sto-3g.gbs
    atoms 4      entry F          line    90 file /Users/kevinhannon/Programs/psi4cmake/psi4/lib/basis/sto-3g.gbs

 MINTS: Wrapper to libmints.
   by Justin Turney

   Calculation information:
      Number of atoms:                   5
      Number of AO shells:               9
      Number of SO shells:               9
      Number of primitives:             27
      Number of atomic orbitals:        13
      Number of basis functions:        13

      Number of irreps:                  1
      Integral cutoff                 1.00e-12
      Number of functions per irrep: [  13 ]

 OEINTS: Overlap, kinetic, potential, dipole, and quadrupole integrals
         stored in file 35.

      Computing two-electron integrals...done
      Computed 1577 non-zero two-electron integrals.
        Stored in file 33.

	Batch   1 pq = [       0,      91] index = [             0,4186]
   => Loading Basis Set <=

    Role: BASIS
    Keyword: BASIS
    Name: STO-3G
    atoms 1      entry O          line    80 file /Users/kevinhannon/Programs/psi4cmake/psi4/lib/basis/sto-3g.gbs
    atoms 2-3, 5 entry H          line    18 file /Users/kevinhannon/Programs/psi4cmake/psi4/lib/basis/sto-3g.gbs
    atoms 4      entry F          line    90 file /Users/kevinhannon/Programs/psi4cmake/psi4/lib/basis/sto-3g.gbs

 MINTS: Wrapper to libmints.
   by Justin Turney

   Calculation information:
      Number of atoms:                   5
      Number of AO shells:               9
      Number of SO shells:               9
      Number of primitives:             27
      Number of atomic orbitals:        13
      Number of basis functions:        13

      Number of irreps:                  1
      Integral cutoff                 1.00e-12
      Number of functions per irrep: [  13 ]

 OEINTS: Overlap, kinetic, potential, dipole, and quadrupole integrals
         stored in file 35.

      Computing two-electron integrals...done
      Computed 1577 non-zero two-electron integrals.
        Stored in file 33.

	Batch   1 pq = [       0,      91] index = [             0,4186]
   => Loading Basis Set <=

    Role: BASIS
    Keyword: BASIS
    Name: STO-3G
    atoms 1      entry O          line    80 file /Users/kevinhannon/Programs/psi4cmake/psi4/lib/basis/sto-3g.gbs
    atoms 2-3, 5 entry H          line    18 file /Users/kevinhannon/Programs/psi4cmake/psi4/lib/basis/sto-3g.gbs
    atoms 4      entry F          line    90 file /Users/kevinhannon/Programs/psi4cmake/psi4/lib/basis/sto-3g.gbs

 MINTS: Wrapper to libmints.
   by Justin Turney

   Calculation information:
      Number of atoms:                   5
      Number of AO shells:               9
      Number of SO shells:               9
      Number of primitives:             27
      Number of atomic orbitals:        13
      Number of basis functions:        13

      Number of irreps:                  1
      Integral cutoff                 1.00e-12
      Number of functions per irrep: [  13 ]

 OEINTS: Overlap, kinetic, potential, dipole, and quadrupole integrals
         stored in file 35.

      Computing two-electron integrals...done
      Computed 1577 non-zero two-electron integrals.
        Stored in file 33.

	Batch   1 pq = [       0,      91] index = [             0,4186]
  ==> DiskJK: Disk-Based J/K Matrices <==

    J tasked:                  Yes
    K tasked:                  Yes
    wK tasked:                  No
    Memory (MB):              7629
    Schwarz Cutoff:          1E-12

  ==> DiskJK: Disk-Based J/K Matrices <==

    J tasked:                  Yes
    K tasked:                  Yes
    wK tasked:                  No
    Memory (MB):              7629
    Schwarz Cutoff:          1E-12

  ==> DiskJK: Disk-Based J/K Matrices <==

    J tasked:                  Yes
    K tasked:                  Yes
    wK tasked:                  No
    Memory (MB):              7629
    Schwarz Cutoff:          1E-12

  ## C (Symmetry 0) ##
  Irrep: 1 Size: 13 x 13

                 1                   2                   3                   4                   5

    1    -0.38065779160237    -0.84804803573241    -0.43139894387272    -0.01881496696217    -0.05135712146502
    2    -0.37844554847696     0.68956931316663    -0.53751336798573     0.01258454267317     0.27765552799447
    3    -0.02879133182297    -0.01866290202557     0.01874083481784     0.99923347018067    -0.00200186909345
    4     0.05916872163269     0.02031455175253    -0.07559019038518     0.00219955422974    -0.64436914418299
    5    -0.44000272929847    -0.11212824137581     0.53118016027455    -0.02529379959914    -0.26886793050052
    6    -0.39146002187162    -0.00053102554372     0.36647582180966    -0.01791102831129     0.11308338054029
    7    -0.00690858134181     0.10402564033541    -0.10317949150049     0.00264320242855    -0.52967024806790
    8    -0.00000000001478     0.00000000000521    -0.00000000001188     0.00000000000741    -0.00000006722278
    9     0.00000000008280    -0.00000000002921     0.00000000006656    -0.00000000004152     0.00000037665831
   10    -0.00000000000000     0.00000000000000    -0.00000000000000     0.00000000000000    -0.00000000000290
   11     0.00000000020299    -0.00000000007160     0.00000000016316    -0.00000000010179     0.00000092337775
   12    -0.00000000000000     0.00000000000000    -0.00000000000000     0.00000000000000    -0.00000000000555
   13    -0.00000000023560     0.00000000008311    -0.00000000018938     0.00000000011814    -0.00000107172724

                 6                   7                   8                   9                  10

    1    -0.00000018144866     0.00000002760695     0.00000000703513    -0.00000000017533    -0.00000000816357
    2     0.00000112873483    -0.00000021352479    -0.00000005509515     0.00000000137730     0.00000006413868
    3     0.00000000007118     0.00000000007962     0.00000000007552     0.00000000000062     0.00000000000446
    4     0.00000167058441    -0.00000015549358    -0.00000004584688     0.00000000125330     0.00000005313441
    5     0.00000038301014    -0.00000004342314    -0.00000000653568     0.00000000009469     0.00000000728864
    6    -0.00000015934566     0.00000001085804    -0.00000000494609     0.00000000028613     0.00000000399100
    7    -0.00000176559873     0.00000042455390     0.00000011836720    -0.00000000312730    -0.00000013620870
    8     0.09424950003958     0.12274284317477    -0.14833645186689     0.99657473037815    -0.14174772406678
    9    -0.36333713089538    -0.44304778006909     0.63661045534829     0.01436168498653     0.57221188685569
   10     0.65923715512037    -0.46698959168022     0.42150149837897    -0.00067771122527    -0.41190183555619
   11    -0.03660488586578    -0.44733343919906    -0.51394904535187     0.00190898723444    -0.07735995260850
   12     0.64984406724553     0.07866169100068    -0.22346904266325    -0.00168698608421     0.72220064224548
   13    -0.06123236847229    -0.43391531249944    -0.40848939525128    -0.00334172990721    -0.02405224525979

                11                  12                  13

    1    -0.08839631887546    -0.09783833181520     0.00000017675505
    2     0.59123258314838     0.65002645424045    -0.00000123801587
    3     0.00002087968324     0.00002377047144     0.00000000268837
    4    -0.40916678779370     0.84266109745276    -0.00000001512556
    5     0.78868362101638     0.17007132057799     0.00000023678516
    6    -1.15658170330507    -0.03376230949979    -0.00000024835683
    7     0.09162231849581    -1.14583325676882     0.00000261693283
    8     0.00000000385488    -0.00000023561284    -0.05635205194220
    9    -0.00000001368553     0.00000090830080     0.31574813993466
   10    -0.00000001474343    -0.00000164801031    -0.00000242788975
   11    -0.00000001648098     0.00000009150752     0.77405649174850
   12     0.00000000178907    -0.00000162451020    -0.00000465155763
   13    -0.00000001577930     0.00000015307343    -0.89841608300668




nAocc = 5	
 nBocc = 5 
  ## CAocc (Symmetry 0) ##
  Irrep: 1 Size: 13 x 5

                 1                   2                   3                   4                   5

    1    -0.38065779160237    -0.84804803573241    -0.43139894387272    -0.01881496696217    -0.05135712146502
    2    -0.37844554847696     0.68956931316663    -0.53751336798573     0.01258454267317     0.27765552799447
    3    -0.02879133182297    -0.01866290202557     0.01874083481784     0.99923347018067    -0.00200186909345
    4     0.05916872163269     0.02031455175253    -0.07559019038518     0.00219955422974    -0.64436914418299
    5    -0.44000272929847    -0.11212824137581     0.53118016027455    -0.02529379959914    -0.26886793050052
    6    -0.39146002187162    -0.00053102554372     0.36647582180966    -0.01791102831129     0.11308338054029
    7    -0.00690858134181     0.10402564033541    -0.10317949150049     0.00264320242855    -0.52967024806790
    8    -0.00000000001478     0.00000000000521    -0.00000000001188     0.00000000000741    -0.00000006722278
    9     0.00000000008280    -0.00000000002921     0.00000000006656    -0.00000000004152     0.00000037665831
   10    -0.00000000000000     0.00000000000000    -0.00000000000000     0.00000000000000    -0.00000000000290
   11     0.00000000020299    -0.00000000007160     0.00000000016316    -0.00000000010179     0.00000092337775
   12    -0.00000000000000     0.00000000000000    -0.00000000000000     0.00000000000000    -0.00000000000555
   13    -0.00000000023560     0.00000000008311    -0.00000000018938     0.00000000011814    -0.00000107172724



  ## CBocc (Symmetry 0) ##
  Irrep: 1 Size: 13 x 5

                 1                   2                   3                   4                   5

    1    -0.00000018144866     0.00000002760695     0.00000000703513    -0.00000000017533    -0.00000000816357
    2     0.00000112873483    -0.00000021352479    -0.00000005509515     0.00000000137730     0.00000006413868
    3     0.00000000007118     0.00000000007962     0.00000000007552     0.00000000000062     0.00000000000446
    4     0.00000167058441    -0.00000015549358    -0.00000004584688     0.00000000125330     0.00000005313441
    5     0.00000038301014    -0.00000004342314    -0.00000000653568     0.00000000009469     0.00000000728864
    6    -0.00000015934566     0.00000001085804    -0.00000000494609     0.00000000028613     0.00000000399100
    7    -0.00000176559873     0.00000042455390     0.00000011836720    -0.00000000312730    -0.00000013620870
    8     0.09424950003958     0.12274284317477    -0.14833645186689     0.99657473037815    -0.14174772406678
    9    -0.36333713089538    -0.44304778006909     0.63661045534829     0.01436168498653     0.57221188685569
   10     0.65923715512037    -0.46698959168022     0.42150149837897    -0.00067771122527    -0.41190183555619
   11    -0.03660488586578    -0.44733343919906    -0.51394904535187     0.00190898723444    -0.07735995260850
   12     0.64984406724553     0.07866169100068    -0.22346904266325    -0.00168698608421     0.72220064224548
   13    -0.06123236847229    -0.43391531249944    -0.40848939525128    -0.00334172990721    -0.02405224525979



  ## CBocc (Symmetry 0) ##
  Irrep: 1 Size: 13 x 10

                 1                   2                   3                   4                   5

    1    -0.38065779160237    -0.84804803573241    -0.43139894387272    -0.01881496696217    -0.05135712146502
    2    -0.37844554847696     0.68956931316663    -0.53751336798573     0.01258454267317     0.27765552799447
    3    -0.02879133182297    -0.01866290202557     0.01874083481784     0.99923347018067    -0.00200186909345
    4     0.05916872163269     0.02031455175253    -0.07559019038518     0.00219955422974    -0.64436914418299
    5    -0.44000272929847    -0.11212824137581     0.53118016027455    -0.02529379959914    -0.26886793050052
    6    -0.39146002187162    -0.00053102554372     0.36647582180966    -0.01791102831129     0.11308338054029
    7    -0.00690858134181     0.10402564033541    -0.10317949150049     0.00264320242855    -0.52967024806790
    8    -0.00000000001478     0.00000000000521    -0.00000000001188     0.00000000000741    -0.00000006722278
    9     0.00000000008280    -0.00000000002921     0.00000000006656    -0.00000000004152     0.00000037665831
   10    -0.00000000000000     0.00000000000000    -0.00000000000000     0.00000000000000    -0.00000000000290
   11     0.00000000020299    -0.00000000007160     0.00000000016316    -0.00000000010179     0.00000092337775
   12    -0.00000000000000     0.00000000000000    -0.00000000000000     0.00000000000000    -0.00000000000555
   13    -0.00000000023560     0.00000000008311    -0.00000000018938     0.00000000011814    -0.00000107172724

                 6                   7                   8                   9                  10

    1    -0.00000018144866     0.00000002760695     0.00000000703513    -0.00000000017533    -0.00000000816357
    2     0.00000112873483    -0.00000021352479    -0.00000005509515     0.00000000137730     0.00000006413868
    3     0.00000000007118     0.00000000007962     0.00000000007552     0.00000000000062     0.00000000000446
    4     0.00000167058441    -0.00000015549358    -0.00000004584688     0.00000000125330     0.00000005313441
    5     0.00000038301014    -0.00000004342314    -0.00000000653568     0.00000000009469     0.00000000728864
    6    -0.00000015934566     0.00000001085804    -0.00000000494609     0.00000000028613     0.00000000399100
    7    -0.00000176559873     0.00000042455390     0.00000011836720    -0.00000000312730    -0.00000013620870
    8     0.09424950003958     0.12274284317477    -0.14833645186689     0.99657473037815    -0.14174772406678
    9    -0.36333713089538    -0.44304778006909     0.63661045534829     0.01436168498653     0.57221188685569
   10     0.65923715512037    -0.46698959168022     0.42150149837897    -0.00067771122527    -0.41190183555619
   11    -0.03660488586578    -0.44733343919906    -0.51394904535187     0.00190898723444    -0.07735995260850
   12     0.64984406724553     0.07866169100068    -0.22346904266325    -0.00168698608421     0.72220064224548
   13    -0.06123236847229    -0.43391531249944    -0.40848939525128    -0.00334172990721    -0.02405224525979



  ## GA (Symmetry 0) ##
  Irrep: 1 Size: 13 x 13

                 1                   2                   3                   4                   5

    1    12.48381585437479     2.44887249013410    -0.00000178513871    -0.00499461480752    -0.00914944975004
    2     2.44887249013410     6.88640477111249    -0.00000048983210     0.04654281745068     0.08505466224511
    3    -0.00000178513871    -0.00000048983210     7.06380811386299     0.00000433391162     0.00000764173812
    4    -0.00499461480752     0.04654281745068     0.00000433391162     7.27219611964742    -0.03930072166166
    5    -0.00914944975004     0.08505466224511     0.00000764173812    -0.03930072166166     7.21928133312411
    6     0.55413323531111     2.71663024542945    -0.00000540296258    -0.82183486056687     1.90357465088153
    7     0.54511408938647     2.68651512323274    -0.00000547453892     2.02717006879680     0.33997392410630
    8    -0.00000000000613     0.00000000000489    -0.00000000000209    -0.00000000055294    -0.00000000016082
    9     0.00000000023830    -0.00000000415634    -0.00000000017645    -0.00000001505728    -0.00000000226644
   10    -0.00000000023945     0.00000000488084     0.00000000020663     0.00000002138363     0.00000000374736
   11     0.00000000031015     0.00000000443464     0.00000000043760     0.00000007528842     0.00000001975955
   12    -0.00000000023514     0.00000000478508     0.00000000022866     0.00000002120067     0.00000000352190
   13     0.00000000018098    -0.00000001581378    -0.00000000057307    -0.00000011747408    -0.00000002674610

                 6                   7                   8                   9                  10

    1     0.55413323531111     0.54511408938647    -0.00000000000613     0.00000000023830    -0.00000000023945
    2     2.71663024542945     2.68651512323274     0.00000000000489    -0.00000000415634     0.00000000488084
    3    -0.00000540296258    -0.00000547453892    -0.00000000000209    -0.00000000017645     0.00000000020663
    4    -0.82183486056687     2.02717006879680    -0.00000000055294    -0.00000001505728     0.00000002138363
    5     1.90357465088153     0.33997392410630    -0.00000000016082    -0.00000000226644     0.00000000374736
    6     4.49731824803672     1.20645303777359     0.00000000005644     0.00000001402797    -0.00000001689166
    7     1.20645303777359     4.48060710397043     0.00000000014543     0.00000035728077    -0.00000042129053
    8     0.00000000005644     0.00000000014543     0.85805070035499     0.20420738506771    -0.00162484905813
    9     0.00000001402797     0.00000035728077     0.20420738506771     0.85805070035432    -0.02033081694613
   10    -0.00000001689166    -0.00000042129053    -0.00162484905813    -0.02033081694613     0.85763459861670
   11    -0.00000003182631    -0.00000045908514    -0.00239331934902    -0.02994625090595     0.00153853805576
   12    -0.00000001314153    -0.00000041598970    -0.00164588380052    -0.02059401277642     0.00106254435953
   13     0.00000007133668     0.00000135668529     0.02152578205055     0.23154149682259    -0.00558179711593

                11                  12                  13

    1     0.00000000031015    -0.00000000023514     0.00000000018098
    2     0.00000000443464     0.00000000478508    -0.00000001581378
    3     0.00000000043760     0.00000000022866    -0.00000000057307
    4     0.00000007528842     0.00000002120067    -0.00000011747408
    5     0.00000001975955     0.00000000352190    -0.00000002674610
    6    -0.00000003182631    -0.00000001314153     0.00000007133668
    7    -0.00000045908514    -0.00000041598970     0.00000135668529
    8    -0.00239331934902    -0.00164588380052     0.02152578205055
    9    -0.02994625090595    -0.02059401277642     0.23154149682259
   10     0.00153853805576     0.00106254435953    -0.00558179711593
   11     0.85885213876892     0.00155526249967     0.19167393062955
   12     0.00155526249967     0.85766536367698    -0.00565524924781
   13     0.19167393062955    -0.00565524924781     0.74747948875789



  ## H (Symmetry 0) ##
  Irrep: 1 Size: 13 x 13

                 1                   2                   3                   4                   5

    1   -32.71519250395254    -7.61144993060570     0.00001003450293    -0.00888301579238    -0.01668234905827
    2    -7.61144993060570    -9.32943415870317     0.00012667072962    -0.10491834921542    -0.19628160164566
    3     0.00001003450293     0.00012667072962    -7.45290007499630     0.00001189278569     0.00001019568992
    4    -0.00888301579238    -0.10491834921542     0.00001189278569    -7.59280752174178     0.02632654303671
    5    -0.01668234905827    -0.19628160164566     0.00001019568992     0.02632654303671    -7.56106421246118
    6    -1.74966020574359    -3.74006475838194     0.00006271391419     0.99305989962926    -2.41559856203915
    7    -1.72165683816135    -3.69863259835236     0.00006866499450    -2.54725587750367    -0.47354598659122
    8     0.00000000000566    -0.00000000005892    -0.00000000000203    -0.00000000034272    -0.00000000006410
    9    -0.00000000035292     0.00000000707618     0.00000000022782     0.00000003290355     0.00000000657572
   10     0.00000000062191    -0.00000001196318    -0.00000000037169    -0.00000005549865    -0.00000001260192
   11    -0.00000000005413     0.00000000071112     0.00000000001013     0.00000000384173     0.00000000010360
   12     0.00000000060757    -0.00000001170185    -0.00000000038934    -0.00000005501654    -0.00000001189154
   13    -0.00000000016829     0.00000000196343    -0.00000000117198     0.00000001231977     0.00000000111239

                 6                   7                   8                   9                  10

    1    -1.74966020574359    -1.72165683816135     0.00000000000566    -0.00000000035292     0.00000000062191
    2    -3.74006475838194    -3.69863259835236    -0.00000000005892     0.00000000707618    -0.00000001196318
    3     0.00006271391419     0.00006866499450    -0.00000000000203     0.00000000022782    -0.00000000037169
    4     0.99305989962926    -2.54725587750367    -0.00000000034272     0.00000003290355    -0.00000005549865
    5    -2.41559856203915    -0.47354598659122    -0.00000000006410     0.00000000657572    -0.00000001260192
    6    -5.07420068430357    -1.59639862763039    -0.00000000025446    -0.00000006985108     0.00000008178516
    7    -1.59639862763039    -5.04812571351691    -0.00000002384168    -0.00000160595470     0.00000175100189
    8    -0.00000000025446    -0.00000002384168   -26.77562057124646    -6.83005751637780     0.00164886556342
    9    -0.00000006985108    -0.00000160595470    -6.83005751637780    -3.88033670708833     0.02063049402047
   10     0.00000008178516     0.00000175100189     0.00164886556342     0.02063049402047    -1.32384974695076
   11     0.00000010779274     0.00000186266867    -0.01371230638124     0.00086798874522    -0.00156868628440
   12     0.00000006353672     0.00000172747882     0.00165220911355     0.02067157174205    -0.00107922820423
   13    -0.00000016959751    -0.00000348733734    -0.73677008058223    -0.92361892003126     0.00566193650204

                11                  12                  13

    1    -0.00000000005413     0.00000000060757    -0.00000000016829
    2     0.00000000071112    -0.00000001170185     0.00000000196343
    3     0.00000000001013    -0.00000000038934    -0.00000000117198
    4     0.00000000384173    -0.00000005501654     0.00000001231977
    5     0.00000000010360    -0.00000001189154     0.00000000111239
    6     0.00000010779274     0.00000006353672    -0.00000016959751
    7     0.00000186266867     0.00000172747882    -0.00000348733734
    8    -0.01371230638124     0.00165220911355    -0.73677008058223
    9     0.00086798874522     0.02067157174205    -0.92361892003126
   10    -0.00156868628440    -0.00107922820423     0.00566193650204
   11    -1.09155980077854    -0.00156813108858    -0.63805692704766
   12    -0.00156813108858    -1.32385926188897     0.00567542849113
   13    -0.63805692704766     0.00567542849113    -1.06511140805502





	Energy of system A =     -84.107414672054 

	

	Energy of system B =    -111.019085017743 

	

	 Embedded energy =    -173.486635970875 
 
	

	Energy of system  =    -173.486635970875 

	

	Error  =       0.000000000000 

	
*** PSI4 exiting successfully. Buy a developer a beer!
