
Host: Kevins-MacBook-Pro.local

Timers On : Fri Oct 10 16:11:34 2014
Timers Off: Fri Oct 10 16:11:34 2014

Wall Time:        0.00 seconds

JK: (A|mn)  :       0.02u       0.00s       0.00w      1 call
JK: (A|Q)^-1/2:       0.08u       0.00s       0.00w      1 call
JK: (Q|mn)  :       0.00u       0.00s       0.00w      1 call
Form H      :       0.00u       0.00s       0.00w      1 call
Form S/X    :       0.00u       0.00s       0.00w      1 call
Guess       :       0.00u       0.00s       0.00w      1 call
Form G      :       0.03u       0.00s       0.00w     23 calls
JK: D       :       0.00u       0.00s       0.00w     23 calls
JK: USO2AO  :       0.00u       0.00s       0.00w     23 calls
JK: JK      :       0.02u       0.00s       0.00w     23 calls
JK: J       :       0.00u       0.00s       0.00w     23 calls
JK: J1      :       0.00u       0.00s       0.00w     23 calls
JK: J2      :       0.00u       0.00s       0.00w     23 calls
JK: K       :       0.00u       0.00s       0.00w     23 calls
JK: K1      :       0.00u       0.00s       0.00w     23 calls
JK: K2      :       0.00u       0.00s       0.00w     23 calls
JK: AO2USO  :       0.00u       0.00s       0.00w     23 calls
Form F      :       0.00u       0.00s       0.00w     23 calls
DIIS        :       0.00u       0.00s       0.00w     23 calls
DIISManager::add_entry:       0.00u       0.00s       0.00w     23 calls
Form C      :       0.00u       0.00s       0.00w     23 calls
Form D      :       0.00u       0.00s       0.00w     23 calls
DIISManager::extrapolate:       0.00u       0.00s       0.00w     22 calls
DIISManager::extrapolate: bMatrix setup:       0.00u       0.00s       0.00w     22 calls
DIISManager::extrapolate: bMatrix pseudoinverse:       0.00u       0.00s       0.00w     22 calls
DIISManager::extrapolate: form new data:       0.00u       0.00s       0.00w     22 calls

***********************************************************

Host: Kevins-MacBook-Pro.local

Timers On : Mon Oct 13 10:18:52 2014
Timers Off: Mon Oct 13 10:18:53 2014

Wall Time:        1.00 seconds

JK: (A|mn)  :       0.02u       0.00s       0.00w      1 call
JK: (A|Q)^-1/2:       0.08u       0.02s       0.00w      1 call
JK: (Q|mn)  :       0.00u       0.00s       0.00w      1 call
Form H      :       0.00u       0.00s       0.00w      1 call
Form S/X    :       0.00u       0.00s       0.00w      1 call
Guess       :       0.00u       0.00s       0.00w      1 call
Form G      :       0.00u       0.00s       0.00w     23 calls
JK: D       :       0.00u       0.00s       0.00w     23 calls
JK: USO2AO  :       0.00u       0.00s       0.00w     23 calls
JK: JK      :       0.00u       0.00s       0.00w     23 calls
JK: J       :       0.00u       0.00s       0.00w     23 calls
JK: J1      :       0.00u       0.00s       0.00w     23 calls
JK: J2      :       0.00u       0.00s       0.00w     23 calls
JK: K       :       0.00u       0.00s       0.00w     23 calls
JK: K1      :       0.00u       0.00s       0.00w     23 calls
JK: K2      :       0.00u       0.00s       0.00w     23 calls
JK: AO2USO  :       0.00u       0.00s       0.00w     23 calls
Form F      :       0.00u       0.00s       0.00w     23 calls
DIIS        :       0.00u       0.00s       0.00w     23 calls
DIISManager::add_entry:       0.00u       0.00s       0.00w     23 calls
Form C      :       0.00u       0.00s       0.00w     23 calls
Form D      :       0.00u       0.00s       0.00w     23 calls
DIISManager::extrapolate:       0.00u       0.00s       0.00w     22 calls
DIISManager::extrapolate: bMatrix setup:       0.00u       0.00s       0.00w     22 calls
DIISManager::extrapolate: bMatrix pseudoinverse:       0.00u       0.00s       0.00w     22 calls
DIISManager::extrapolate: form new data:       0.00u       0.00s       0.00w     22 calls

***********************************************************

Host: Kevins-MacBook-Pro.local

Timers On : Mon Oct 13 10:24:09 2014
Timers Off: Mon Oct 13 10:24:09 2014

Wall Time:        0.00 seconds

JK: (A|mn)  :       0.02u       0.00s       0.00w      1 call
JK: (A|Q)^-1/2:       0.08u       0.00s       0.00w      1 call
JK: (Q|mn)  :       0.00u       0.00s       0.00w      1 call
Form H      :       0.00u       0.00s       0.00w      1 call
Form S/X    :       0.00u       0.00s       0.00w      1 call
Guess       :       0.00u       0.00s       0.00w      1 call
Form G      :       0.00u       0.00s       0.00w     23 calls
JK: D       :       0.00u       0.00s       0.00w     23 calls
JK: USO2AO  :       0.00u       0.00s       0.00w     23 calls
JK: JK      :       0.00u       0.00s       0.00w     23 calls
JK: J       :       0.00u       0.00s       0.00w     23 calls
JK: J1      :       0.00u       0.00s       0.00w     23 calls
JK: J2      :       0.00u       0.00s       0.00w     23 calls
JK: K       :       0.00u       0.00s       0.00w     23 calls
JK: K1      :       0.00u       0.00s       0.00w     23 calls
JK: K2      :       0.00u       0.00s       0.00w     23 calls
JK: AO2USO  :       0.00u       0.00s       0.00w     23 calls
Form F      :       0.00u       0.00s       0.00w     23 calls
DIIS        :       0.03u       0.00s       0.00w     23 calls
DIISManager::add_entry:       0.00u       0.00s       0.00w     23 calls
Form C      :       0.00u       0.00s       0.00w     23 calls
Form D      :       0.00u       0.00s       0.00w     23 calls
DIISManager::extrapolate:       0.03u       0.00s       0.00w     22 calls
DIISManager::extrapolate: bMatrix setup:       0.02u       0.00s       0.00w     22 calls
DIISManager::extrapolate: bMatrix pseudoinverse:       0.00u       0.00s       0.00w     22 calls
DIISManager::extrapolate: form new data:       0.02u       0.00s       0.00w     22 calls

***********************************************************

Host: Kevins-MacBook-Pro.local

Timers On : Mon Oct 13 10:30:52 2014
Timers Off: Mon Oct 13 10:30:52 2014

Wall Time:        0.00 seconds

JK: (A|mn)  :       0.02u       0.00s       0.00w      1 call
JK: (A|Q)^-1/2:       0.08u       0.00s       0.00w      1 call
JK: (Q|mn)  :       0.00u       0.00s       0.00w      1 call
Form H      :       0.00u       0.00s       0.00w      1 call
Form S/X    :       0.00u       0.00s       0.00w      1 call
Guess       :       0.00u       0.00s       0.00w      1 call
Form G      :       0.02u       0.00s       0.00w     23 calls
JK: D       :       0.02u       0.00s       0.00w     23 calls
JK: USO2AO  :       0.00u       0.00s       0.00w     23 calls
JK: JK      :       0.00u       0.00s       0.00w     23 calls
JK: J       :       0.00u       0.00s       0.00w     23 calls
JK: J1      :       0.00u       0.00s       0.00w     23 calls
JK: J2      :       0.00u       0.00s       0.00w     23 calls
JK: K       :       0.00u       0.00s       0.00w     23 calls
JK: K1      :       0.00u       0.00s       0.00w     23 calls
JK: K2      :       0.00u       0.00s       0.00w     23 calls
JK: AO2USO  :       0.00u       0.00s       0.00w     23 calls
Form F      :       0.00u       0.00s       0.00w     23 calls
DIIS        :       0.00u       0.00s       0.00w     23 calls
DIISManager::add_entry:       0.00u       0.00s       0.00w     23 calls
Form C      :       0.02u       0.00s       0.00w     23 calls
Form D      :       0.00u       0.00s       0.00w     23 calls
DIISManager::extrapolate:       0.00u       0.00s       0.00w     22 calls
DIISManager::extrapolate: bMatrix setup:       0.00u       0.00s       0.00w     22 calls
DIISManager::extrapolate: bMatrix pseudoinverse:       0.00u       0.00s       0.00w     22 calls
DIISManager::extrapolate: form new data:       0.00u       0.00s       0.00w     22 calls

***********************************************************

Host: Kevins-MacBook-Pro.local

Timers On : Mon Oct 13 10:35:28 2014
Timers Off: Mon Oct 13 10:35:29 2014

Wall Time:        1.00 seconds

JK: (A|mn)  :       0.03u       0.00s       0.00w      1 call
JK: (A|Q)^-1/2:       0.07u       0.00s       1.00w      1 call
JK: (Q|mn)  :       0.00u       0.00s       0.00w      1 call
Form H      :       0.00u       0.00s       0.00w      1 call
Form S/X    :       0.00u       0.00s       0.00w      1 call
Guess       :       0.00u       0.00s       0.00w      1 call
Form G      :       0.02u       0.00s       0.00w     23 calls
JK: D       :       0.00u       0.00s       0.00w     23 calls
JK: USO2AO  :       0.00u       0.00s       0.00w     23 calls
JK: JK      :       0.02u       0.00s       0.00w     23 calls
JK: J       :       0.00u       0.00s       0.00w     23 calls
JK: J1      :       0.00u       0.00s       0.00w     23 calls
JK: J2      :       0.00u       0.00s       0.00w     23 calls
JK: K       :       0.00u       0.00s       0.00w     23 calls
JK: K1      :       0.00u       0.00s       0.00w     23 calls
JK: K2      :       0.00u       0.00s       0.00w     23 calls
JK: AO2USO  :       0.00u       0.00s       0.00w     23 calls
Form F      :       0.00u       0.00s       0.00w     23 calls
DIIS        :       0.02u       0.00s       0.00w     23 calls
DIISManager::add_entry:       0.00u       0.00s       0.00w     23 calls
Form C      :       0.00u       0.00s       0.00w     23 calls
Form D      :       0.00u       0.00s       0.00w     23 calls
DIISManager::extrapolate:       0.00u       0.00s       0.00w     22 calls
DIISManager::extrapolate: bMatrix setup:       0.00u       0.00s       0.00w     22 calls
DIISManager::extrapolate: bMatrix pseudoinverse:       0.00u       0.00s       0.00w     22 calls
DIISManager::extrapolate: form new data:       0.00u       0.00s       0.00w     22 calls

***********************************************************

Host: Kevins-MacBook-Pro.local

Timers On : Mon Oct 13 11:11:33 2014
Timers Off: Mon Oct 13 11:11:33 2014

Wall Time:        0.00 seconds

JK: (A|mn)  :       0.02u       0.00s       0.00w      1 call
JK: (A|Q)^-1/2:       0.08u       0.00s       0.00w      1 call
JK: (Q|mn)  :       0.00u       0.00s       0.00w      1 call
Form H      :       0.00u       0.00s       0.00w      1 call
Form S/X    :       0.00u       0.00s       0.00w      1 call
Guess       :       0.00u       0.00s       0.00w      1 call
Form G      :       0.02u       0.00s       0.00w     23 calls
JK: D       :       0.00u       0.00s       0.00w     23 calls
JK: USO2AO  :       0.00u       0.00s       0.00w     23 calls
JK: JK      :       0.00u       0.00s       0.00w     23 calls
JK: J       :       0.00u       0.00s       0.00w     23 calls
JK: J1      :       0.00u       0.00s       0.00w     23 calls
JK: J2      :       0.00u       0.00s       0.00w     23 calls
JK: K       :       0.00u       0.00s       0.00w     23 calls
JK: K1      :       0.00u       0.00s       0.00w     23 calls
JK: K2      :       0.00u       0.00s       0.00w     23 calls
JK: AO2USO  :       0.00u       0.00s       0.00w     23 calls
Form F      :       0.00u       0.00s       0.00w     23 calls
DIIS        :       0.00u       0.00s       0.00w     23 calls
DIISManager::add_entry:       0.00u       0.00s       0.00w     23 calls
Form C      :       0.00u       0.00s       0.00w     23 calls
Form D      :       0.00u       0.00s       0.00w     23 calls
DIISManager::extrapolate:       0.00u       0.00s       0.00w     22 calls
DIISManager::extrapolate: bMatrix setup:       0.00u       0.00s       0.00w     22 calls
DIISManager::extrapolate: bMatrix pseudoinverse:       0.00u       0.00s       0.00w     22 calls
DIISManager::extrapolate: form new data:       0.00u       0.00s       0.00w     22 calls

***********************************************************

Host: Kevins-MacBook-Pro.local

Timers On : Mon Oct 13 11:37:47 2014
Timers Off: Mon Oct 13 11:37:48 2014

Wall Time:        1.00 seconds

JK: (A|mn)  :       0.02u       0.00s       0.00w      1 call
JK: (A|Q)^-1/2:       0.08u       0.00s       0.00w      1 call
JK: (Q|mn)  :       0.00u       0.00s       0.00w      1 call
Form H      :       0.00u       0.00s       0.00w      1 call
Form S/X    :       0.00u       0.00s       0.00w      1 call
Guess       :       0.00u       0.00s       0.00w      1 call
Form G      :       0.03u       0.00s       0.00w     23 calls
JK: D       :       0.00u       0.00s       0.00w     23 calls
JK: USO2AO  :       0.00u       0.00s       0.00w     23 calls
JK: JK      :       0.03u       0.00s       0.00w     23 calls
JK: J       :       0.00u       0.00s       0.00w     23 calls
JK: J1      :       0.00u       0.00s       0.00w     23 calls
JK: J2      :       0.00u       0.00s       0.00w     23 calls
JK: K       :       0.02u       0.00s       0.00w     23 calls
JK: K1      :       0.02u       0.00s       0.00w     23 calls
JK: K2      :       0.00u       0.00s       0.00w     23 calls
JK: AO2USO  :       0.00u       0.00s       0.00w     23 calls
Form F      :       0.00u       0.00s       0.00w     23 calls
DIIS        :       0.00u       0.00s       0.00w     23 calls
DIISManager::add_entry:       0.00u       0.00s       0.00w     23 calls
Form C      :       0.00u       0.00s       0.00w     23 calls
Form D      :       0.00u       0.00s       0.00w     23 calls
DIISManager::extrapolate:       0.00u       0.00s       0.00w     22 calls
DIISManager::extrapolate: bMatrix setup:       0.00u       0.00s       0.00w     22 calls
DIISManager::extrapolate: bMatrix pseudoinverse:       0.00u       0.00s       0.00w     22 calls
DIISManager::extrapolate: form new data:       0.00u       0.00s       0.00w     22 calls

***********************************************************

Host: Kevins-MacBook-Pro.local

Timers On : Mon Oct 13 11:47:37 2014
Timers Off: Mon Oct 13 11:47:38 2014

Wall Time:        1.00 seconds

JK: (A|mn)  :       0.02u       0.00s       0.00w      1 call
JK: (A|Q)^-1/2:       0.08u       0.00s       0.00w      1 call
JK: (Q|mn)  :       0.00u       0.00s       0.00w      1 call
Form H      :       0.00u       0.00s       0.00w      1 call
Form S/X    :       0.00u       0.00s       0.00w      1 call
Guess       :       0.00u       0.00s       0.00w      1 call
Form G      :       0.02u       0.00s       0.00w     23 calls
JK: D       :       0.00u       0.00s       0.00w     23 calls
JK: USO2AO  :       0.00u       0.00s       0.00w     23 calls
JK: JK      :       0.00u       0.00s       0.00w     23 calls
JK: J       :       0.00u       0.00s       0.00w     23 calls
JK: J1      :       0.00u       0.00s       0.00w     23 calls
JK: J2      :       0.00u       0.00s       0.00w     23 calls
JK: K       :       0.00u       0.00s       0.00w     23 calls
JK: K1      :       0.00u       0.00s       0.00w     23 calls
JK: K2      :       0.00u       0.00s       0.00w     23 calls
JK: AO2USO  :       0.00u       0.00s       0.00w     23 calls
Form F      :       0.00u       0.00s       0.00w     23 calls
DIIS        :       0.00u       0.00s       0.00w     23 calls
DIISManager::add_entry:       0.00u       0.00s       0.00w     23 calls
Form C      :       0.00u       0.00s       0.00w     23 calls
Form D      :       0.00u       0.00s       0.00w     23 calls
DIISManager::extrapolate:       0.00u       0.00s       0.00w     22 calls
DIISManager::extrapolate: bMatrix setup:       0.00u       0.00s       0.00w     22 calls
DIISManager::extrapolate: bMatrix pseudoinverse:       0.00u       0.00s       0.00w     22 calls
DIISManager::extrapolate: form new data:       0.00u       0.00s       0.00w     22 calls

***********************************************************

Host: Kevins-MacBook-Pro.local

Timers On : Mon Oct 13 12:06:34 2014
Timers Off: Mon Oct 13 12:06:35 2014

Wall Time:        1.00 seconds

JK: (A|mn)  :       0.02u       0.00s       0.00w      1 call
JK: (A|Q)^-1/2:       0.08u       0.00s       0.00w      1 call
JK: (Q|mn)  :       0.00u       0.00s       0.00w      1 call
Form H      :       0.00u       0.00s       0.00w      1 call
Form S/X    :       0.00u       0.00s       0.00w      1 call
Guess       :       0.00u       0.00s       0.00w      1 call
Form G      :       0.00u       0.00s       0.00w     23 calls
JK: D       :       0.00u       0.00s       0.00w     23 calls
JK: USO2AO  :       0.00u       0.00s       0.00w     23 calls
JK: JK      :       0.00u       0.00s       0.00w     23 calls
JK: J       :       0.00u       0.00s       0.00w     23 calls
JK: J1      :       0.00u       0.00s       0.00w     23 calls
JK: J2      :       0.00u       0.00s       0.00w     23 calls
JK: K       :       0.00u       0.00s       0.00w     23 calls
JK: K1      :       0.00u       0.00s       0.00w     23 calls
JK: K2      :       0.00u       0.00s       0.00w     23 calls
JK: AO2USO  :       0.00u       0.00s       0.00w     23 calls
Form F      :       0.00u       0.00s       0.00w     23 calls
DIIS        :       0.02u       0.00s       0.00w     23 calls
DIISManager::add_entry:       0.00u       0.00s       0.00w     23 calls
Form C      :       0.00u       0.00s       0.00w     23 calls
Form D      :       0.00u       0.00s       0.00w     23 calls
DIISManager::extrapolate:       0.02u       0.00s       0.00w     22 calls
DIISManager::extrapolate: bMatrix setup:       0.02u       0.00s       0.00w     22 calls
DIISManager::extrapolate: bMatrix pseudoinverse:       0.00u       0.00s       0.00w     22 calls
DIISManager::extrapolate: form new data:       0.00u       0.00s       0.00w     22 calls

***********************************************************

Host: Kevins-MacBook-Pro.local

Timers On : Mon Oct 13 13:05:03 2014
Timers Off: Mon Oct 13 13:05:04 2014

Wall Time:        1.00 seconds

JK: (A|mn)  :       0.02u       0.00s       0.00w      1 call
JK: (A|Q)^-1/2:       0.07u       0.00s       0.00w      1 call
JK: (Q|mn)  :       0.00u       0.00s       0.00w      1 call
Form H      :       0.00u       0.00s       0.00w      1 call
Form S/X    :       0.00u       0.00s       0.00w      1 call
Guess       :       0.00u       0.00s       0.00w      1 call
Form G      :       0.02u       0.00s       0.00w     23 calls
JK: D       :       0.00u       0.00s       0.00w     23 calls
JK: USO2AO  :       0.00u       0.00s       0.00w     23 calls
JK: JK      :       0.02u       0.00s       0.00w     23 calls
JK: J       :       0.00u       0.00s       0.00w     23 calls
JK: J1      :       0.00u       0.00s       0.00w     23 calls
JK: J2      :       0.00u       0.00s       0.00w     23 calls
JK: K       :       0.02u       0.00s       0.00w     23 calls
JK: K1      :       0.00u       0.00s       0.00w     23 calls
JK: K2      :       0.02u       0.00s       0.00w     23 calls
JK: AO2USO  :       0.00u       0.00s       0.00w     23 calls
Form F      :       0.00u       0.00s       0.00w     23 calls
DIIS        :       0.00u       0.00s       0.00w     23 calls
DIISManager::add_entry:       0.00u       0.00s       0.00w     23 calls
Form C      :       0.00u       0.00s       0.00w     23 calls
Form D      :       0.00u       0.00s       0.00w     23 calls
DIISManager::extrapolate:       0.00u       0.00s       0.00w     22 calls
DIISManager::extrapolate: bMatrix setup:       0.00u       0.00s       0.00w     22 calls
DIISManager::extrapolate: bMatrix pseudoinverse:       0.00u       0.00s       0.00w     22 calls
DIISManager::extrapolate: form new data:       0.00u       0.00s       0.00w     22 calls

***********************************************************

Host: Kevins-MacBook-Pro.local

Timers On : Mon Oct 13 13:06:45 2014
Timers Off: Mon Oct 13 13:06:46 2014

Wall Time:        1.00 seconds

JK: (A|mn)  :       0.02u       0.00s       0.00w      1 call
JK: (A|Q)^-1/2:       0.08u       0.00s       0.00w      1 call
JK: (Q|mn)  :       0.00u       0.00s       0.00w      1 call
Form H      :       0.00u       0.00s       0.00w      1 call
Form S/X    :       0.00u       0.00s       0.00w      1 call
Guess       :       0.00u       0.00s       0.00w      1 call
Form G      :       0.02u       0.00s       0.00w     23 calls
JK: D       :       0.00u       0.00s       0.00w     23 calls
JK: USO2AO  :       0.00u       0.00s       0.00w     23 calls
JK: JK      :       0.02u       0.00s       0.00w     23 calls
JK: J       :       0.00u       0.00s       0.00w     23 calls
JK: J1      :       0.00u       0.00s       0.00w     23 calls
JK: J2      :       0.00u       0.00s       0.00w     23 calls
JK: K       :       0.02u       0.00s       0.00w     23 calls
JK: K1      :       0.02u       0.00s       0.00w     23 calls
JK: K2      :       0.00u       0.00s       0.00w     23 calls
JK: AO2USO  :       0.00u       0.00s       0.00w     23 calls
Form F      :       0.00u       0.00s       0.00w     23 calls
DIIS        :       0.00u       0.00s       0.00w     23 calls
DIISManager::add_entry:       0.00u       0.00s       0.00w     23 calls
Form C      :       0.00u       0.00s       0.00w     23 calls
Form D      :       0.00u       0.00s       0.00w     23 calls
DIISManager::extrapolate:       0.00u       0.00s       0.00w     22 calls
DIISManager::extrapolate: bMatrix setup:       0.00u       0.00s       0.00w     22 calls
DIISManager::extrapolate: bMatrix pseudoinverse:       0.00u       0.00s       0.00w     22 calls
DIISManager::extrapolate: form new data:       0.00u       0.00s       0.00w     22 calls

***********************************************************

Host: Kevins-MacBook-Pro.local

Timers On : Mon Oct 13 13:07:09 2014
Timers Off: Mon Oct 13 13:07:10 2014

Wall Time:        1.00 seconds

JK: (A|mn)  :       0.02u       0.00s       0.00w      1 call
JK: (A|Q)^-1/2:       0.08u       0.00s       0.00w      1 call
JK: (Q|mn)  :       0.00u       0.00s       1.00w      1 call
Form H      :       0.00u       0.00s       0.00w      1 call
Form S/X    :       0.00u       0.00s       0.00w      1 call
Guess       :       0.00u       0.00s       0.00w      1 call
Form G      :       0.00u       0.00s       0.00w     23 calls
JK: D       :       0.00u       0.00s       0.00w     23 calls
JK: USO2AO  :       0.00u       0.00s       0.00w     23 calls
JK: JK      :       0.00u       0.00s       0.00w     23 calls
JK: J       :       0.00u       0.00s       0.00w     23 calls
JK: J1      :       0.00u       0.00s       0.00w     23 calls
JK: J2      :       0.00u       0.00s       0.00w     23 calls
JK: K       :       0.00u       0.00s       0.00w     23 calls
JK: K1      :       0.00u       0.00s       0.00w     23 calls
JK: K2      :       0.00u       0.00s       0.00w     23 calls
JK: AO2USO  :       0.00u       0.00s       0.00w     23 calls
Form F      :       0.00u       0.00s       0.00w     23 calls
DIIS        :       0.03u       0.00s       0.00w     23 calls
DIISManager::add_entry:       0.00u       0.00s       0.00w     23 calls
Form C      :       0.00u       0.00s       0.00w     23 calls
Form D      :       0.00u       0.00s       0.00w     23 calls
DIISManager::extrapolate:       0.03u       0.00s       0.00w     22 calls
DIISManager::extrapolate: bMatrix setup:       0.02u       0.00s       0.00w     22 calls
DIISManager::extrapolate: bMatrix pseudoinverse:       0.02u       0.00s       0.00w     22 calls
DIISManager::extrapolate: form new data:       0.00u       0.00s       0.00w     22 calls

***********************************************************

Host: Kevins-MacBook-Pro.local

Timers On : Mon Oct 13 13:07:37 2014
Timers Off: Mon Oct 13 13:07:38 2014

Wall Time:        1.00 seconds

JK: (A|mn)  :       0.02u       0.00s       0.00w      1 call
JK: (A|Q)^-1/2:       0.08u       0.00s       0.00w      1 call
JK: (Q|mn)  :       0.00u       0.00s       0.00w      1 call
Form H      :       0.00u       0.00s       0.00w      1 call
Form S/X    :       0.00u       0.00s       0.00w      1 call
Guess       :       0.00u       0.00s       0.00w      1 call
Form G      :       0.02u       0.00s       0.00w     23 calls
JK: D       :       0.00u       0.00s       0.00w     23 calls
JK: USO2AO  :       0.00u       0.00s       0.00w     23 calls
JK: JK      :       0.02u       0.00s       0.00w     23 calls
JK: J       :       0.00u       0.00s       0.00w     23 calls
JK: J1      :       0.00u       0.00s       0.00w     23 calls
JK: J2      :       0.00u       0.00s       0.00w     23 calls
JK: K       :       0.02u       0.00s       0.00w     23 calls
JK: K1      :       0.02u       0.00s       0.00w     23 calls
JK: K2      :       0.00u       0.00s       0.00w     23 calls
JK: AO2USO  :       0.00u       0.00s       0.00w     23 calls
Form F      :       0.00u       0.00s       0.00w     23 calls
DIIS        :       0.00u       0.00s       0.00w     23 calls
DIISManager::add_entry:       0.00u       0.00s       0.00w     23 calls
Form C      :       0.00u       0.00s       0.00w     23 calls
Form D      :       0.00u       0.00s       0.00w     23 calls
DIISManager::extrapolate:       0.00u       0.00s       0.00w     22 calls
DIISManager::extrapolate: bMatrix setup:       0.00u       0.00s       0.00w     22 calls
DIISManager::extrapolate: bMatrix pseudoinverse:       0.00u       0.00s       0.00w     22 calls
DIISManager::extrapolate: form new data:       0.00u       0.00s       0.00w     22 calls

***********************************************************

Host: Kevins-MacBook-Pro.local

Timers On : Mon Oct 13 13:08:19 2014
Timers Off: Mon Oct 13 13:08:19 2014

Wall Time:        0.00 seconds

JK: (A|mn)  :       0.02u       0.00s       0.00w      1 call
JK: (A|Q)^-1/2:       0.08u       0.00s       0.00w      1 call
JK: (Q|mn)  :       0.00u       0.00s       0.00w      1 call
Form H      :       0.00u       0.00s       0.00w      1 call
Form S/X    :       0.00u       0.00s       0.00w      1 call
Guess       :       0.00u       0.00s       0.00w      1 call
Form G      :       0.03u       0.00s       0.00w     23 calls
JK: D       :       0.00u       0.00s       0.00w     23 calls
JK: USO2AO  :       0.00u       0.00s       0.00w     23 calls
JK: JK      :       0.03u       0.00s       0.00w     23 calls
JK: J       :       0.00u       0.00s       0.00w     23 calls
JK: J1      :       0.00u       0.00s       0.00w     23 calls
JK: J2      :       0.00u       0.00s       0.00w     23 calls
JK: K       :       0.03u       0.00s       0.00w     23 calls
JK: K1      :       0.03u       0.00s       0.00w     23 calls
JK: K2      :       0.00u       0.00s       0.00w     23 calls
JK: AO2USO  :       0.00u       0.00s       0.00w     23 calls
Form F      :       0.00u       0.00s       0.00w     23 calls
DIIS        :       0.00u       0.00s       0.00w     23 calls
DIISManager::add_entry:       0.00u       0.00s       0.00w     23 calls
Form C      :       0.00u       0.00s       0.00w     23 calls
Form D      :       0.00u       0.00s       0.00w     23 calls
DIISManager::extrapolate:       0.00u       0.00s       0.00w     22 calls
DIISManager::extrapolate: bMatrix setup:       0.00u       0.00s       0.00w     22 calls
DIISManager::extrapolate: bMatrix pseudoinverse:       0.00u       0.00s       0.00w     22 calls
DIISManager::extrapolate: form new data:       0.00u       0.00s       0.00w     22 calls

***********************************************************

Host: Kevins-MacBook-Pro.local

Timers On : Mon Oct 13 13:11:17 2014
Timers Off: Mon Oct 13 13:11:17 2014

Wall Time:        0.00 seconds

JK: (A|mn)  :       0.02u       0.00s       0.00w      1 call
JK: (A|Q)^-1/2:       0.08u       0.00s       0.00w      1 call
JK: (Q|mn)  :       0.00u       0.00s       0.00w      1 call
Form H      :       0.00u       0.00s       0.00w      1 call
Form S/X    :       0.00u       0.00s       0.00w      1 call
Guess       :       0.00u       0.00s       0.00w      1 call
Form G      :       0.02u       0.00s       0.00w     23 calls
JK: D       :       0.00u       0.00s       0.00w     23 calls
JK: USO2AO  :       0.00u       0.00s       0.00w     23 calls
JK: JK      :       0.02u       0.00s       0.00w     23 calls
JK: J       :       0.00u       0.00s       0.00w     23 calls
JK: J1      :       0.00u       0.00s       0.00w     23 calls
JK: J2      :       0.00u       0.00s       0.00w     23 calls
JK: K       :       0.02u       0.00s       0.00w     23 calls
JK: K1      :       0.00u       0.00s       0.00w     23 calls
JK: K2      :       0.02u       0.00s       0.00w     23 calls
JK: AO2USO  :       0.00u       0.00s       0.00w     23 calls
Form F      :       0.00u       0.00s       0.00w     23 calls
DIIS        :       0.00u       0.00s       0.00w     23 calls
DIISManager::add_entry:       0.00u       0.00s       0.00w     23 calls
Form C      :       0.00u       0.00s       0.00w     23 calls
Form D      :       0.00u       0.00s       0.00w     23 calls
DIISManager::extrapolate:       0.00u       0.00s       0.00w     22 calls
DIISManager::extrapolate: bMatrix setup:       0.00u       0.00s       0.00w     22 calls
DIISManager::extrapolate: bMatrix pseudoinverse:       0.00u       0.00s       0.00w     22 calls
DIISManager::extrapolate: form new data:       0.00u       0.00s       0.00w     22 calls

***********************************************************

Host: Kevins-MacBook-Pro.local

Timers On : Mon Oct 13 14:13:49 2014
Timers Off: Mon Oct 13 14:13:50 2014

Wall Time:        1.00 seconds

JK: (A|mn)  :       0.02u       0.00s       0.00w      1 call
JK: (A|Q)^-1/2:       0.08u       0.00s       0.00w      1 call
JK: (Q|mn)  :       0.00u       0.00s       0.00w      1 call
Form H      :       0.00u       0.00s       0.00w      1 call
Form S/X    :       0.00u       0.00s       0.00w      1 call
Guess       :       0.00u       0.00s       0.00w      1 call
Form G      :       0.03u       0.02s       0.00w     23 calls
JK: D       :       0.00u       0.00s       0.00w     23 calls
JK: USO2AO  :       0.00u       0.02s       0.00w     23 calls
JK: JK      :       0.03u       0.00s       0.00w     23 calls
JK: J       :       0.00u       0.00s       0.00w     23 calls
JK: J1      :       0.00u       0.00s       0.00w     23 calls
JK: J2      :       0.00u       0.00s       0.00w     23 calls
JK: K       :       0.03u       0.00s       0.00w     23 calls
JK: K1      :       0.03u       0.00s       0.00w     23 calls
JK: K2      :       0.00u       0.00s       0.00w     23 calls
JK: AO2USO  :       0.00u       0.00s       0.00w     23 calls
Form F      :       0.00u       0.00s       0.00w     23 calls
DIIS        :       0.00u       0.00s       0.00w     23 calls
DIISManager::add_entry:       0.00u       0.00s       0.00w     23 calls
Form C      :       0.00u       0.00s       0.00w     23 calls
Form D      :       0.00u       0.00s       0.00w     23 calls
DIISManager::extrapolate:       0.00u       0.00s       0.00w     22 calls
DIISManager::extrapolate: bMatrix setup:       0.00u       0.00s       0.00w     22 calls
DIISManager::extrapolate: bMatrix pseudoinverse:       0.00u       0.00s       0.00w     22 calls
DIISManager::extrapolate: form new data:       0.00u       0.00s       0.00w     22 calls

***********************************************************

Host: Kevins-MacBook-Pro.local

Timers On : Mon Oct 13 14:16:24 2014
Timers Off: Mon Oct 13 14:16:25 2014

Wall Time:        1.00 seconds

JK: (A|mn)  :       0.02u       0.00s       0.00w      1 call
JK: (A|Q)^-1/2:       0.08u       0.00s       0.00w      1 call
JK: (Q|mn)  :       0.00u       0.00s       0.00w      1 call
Form H      :       0.00u       0.00s       0.00w      1 call
Form S/X    :       0.00u       0.00s       0.00w      1 call
Guess       :       0.00u       0.00s       0.00w      1 call
Form G      :       0.02u       0.00s       0.00w     23 calls
JK: D       :       0.00u       0.00s       0.00w     23 calls
JK: USO2AO  :       0.00u       0.00s       0.00w     23 calls
JK: JK      :       0.02u       0.00s       0.00w     23 calls
JK: J       :       0.00u       0.00s       0.00w     23 calls
JK: J1      :       0.00u       0.00s       0.00w     23 calls
JK: J2      :       0.00u       0.00s       0.00w     23 calls
JK: K       :       0.00u       0.00s       0.00w     23 calls
JK: K1      :       0.00u       0.00s       0.00w     23 calls
JK: K2      :       0.00u       0.00s       0.00w     23 calls
JK: AO2USO  :       0.00u       0.00s       0.00w     23 calls
Form F      :       0.00u       0.00s       0.00w     23 calls
DIIS        :       0.00u       0.00s       0.00w     23 calls
DIISManager::add_entry:       0.00u       0.00s       0.00w     23 calls
Form C      :       0.00u       0.00s       0.00w     23 calls
Form D      :       0.00u       0.00s       0.00w     23 calls
DIISManager::extrapolate:       0.00u       0.00s       0.00w     22 calls
DIISManager::extrapolate: bMatrix setup:       0.00u       0.00s       0.00w     22 calls
DIISManager::extrapolate: bMatrix pseudoinverse:       0.00u       0.00s       0.00w     22 calls
DIISManager::extrapolate: form new data:       0.00u       0.00s       0.00w     22 calls

***********************************************************

Host: Kevins-MacBook-Pro.local

Timers On : Mon Oct 13 14:17:58 2014
Timers Off: Mon Oct 13 14:17:58 2014

Wall Time:        0.00 seconds

JK: (A|mn)  :       0.02u       0.00s       0.00w      1 call
JK: (A|Q)^-1/2:       0.08u       0.00s       0.00w      1 call
JK: (Q|mn)  :       0.00u       0.00s       0.00w      1 call
Form H      :       0.00u       0.00s       0.00w      1 call
Form S/X    :       0.00u       0.00s       0.00w      1 call
Guess       :       0.00u       0.00s       0.00w      1 call
Form G      :       0.02u       0.00s       0.00w     23 calls
JK: D       :       0.00u       0.00s       0.00w     23 calls
JK: USO2AO  :       0.02u       0.00s       0.00w     23 calls
JK: JK      :       0.00u       0.00s       0.00w     23 calls
JK: J       :       0.00u       0.00s       0.00w     23 calls
JK: J1      :       0.00u       0.00s       0.00w     23 calls
JK: J2      :       0.00u       0.00s       0.00w     23 calls
JK: K       :       0.00u       0.00s       0.00w     23 calls
JK: K1      :       0.00u       0.00s       0.00w     23 calls
JK: K2      :       0.00u       0.00s       0.00w     23 calls
JK: AO2USO  :       0.00u       0.00s       0.00w     23 calls
Form F      :       0.00u       0.00s       0.00w     23 calls
DIIS        :       0.00u       0.00s       0.00w     23 calls
DIISManager::add_entry:       0.00u       0.00s       0.00w     23 calls
Form C      :       0.00u       0.00s       0.00w     23 calls
Form D      :       0.00u       0.00s       0.00w     23 calls
DIISManager::extrapolate:       0.00u       0.00s       0.00w     22 calls
DIISManager::extrapolate: bMatrix setup:       0.00u       0.00s       0.00w     22 calls
DIISManager::extrapolate: bMatrix pseudoinverse:       0.00u       0.00s       0.00w     22 calls
DIISManager::extrapolate: form new data:       0.00u       0.00s       0.00w     22 calls

***********************************************************

Host: Kevins-MacBook-Pro.local

Timers On : Mon Oct 13 14:18:25 2014
Timers Off: Mon Oct 13 14:18:25 2014

Wall Time:        0.00 seconds

JK: (A|mn)  :       0.02u       0.00s       0.00w      1 call
JK: (A|Q)^-1/2:       0.08u       0.00s       0.00w      1 call
JK: (Q|mn)  :       0.00u       0.00s       0.00w      1 call
Form H      :       0.00u       0.00s       0.00w      1 call
Form S/X    :       0.00u       0.00s       0.00w      1 call
Guess       :       0.00u       0.00s       0.00w      1 call
Form G      :       0.02u       0.00s       0.00w     23 calls
JK: D       :       0.00u       0.00s       0.00w     23 calls
JK: USO2AO  :       0.00u       0.00s       0.00w     23 calls
JK: JK      :       0.02u       0.00s       0.00w     23 calls
JK: J       :       0.00u       0.00s       0.00w     23 calls
JK: J1      :       0.00u       0.00s       0.00w     23 calls
JK: J2      :       0.00u       0.00s       0.00w     23 calls
JK: K       :       0.02u       0.00s       0.00w     23 calls
JK: K1      :       0.02u       0.00s       0.00w     23 calls
JK: K2      :       0.00u       0.00s       0.00w     23 calls
JK: AO2USO  :       0.00u       0.00s       0.00w     23 calls
Form F      :       0.00u       0.00s       0.00w     23 calls
DIIS        :       0.00u       0.00s       0.00w     23 calls
DIISManager::add_entry:       0.00u       0.00s       0.00w     23 calls
Form C      :       0.00u       0.00s       0.00w     23 calls
Form D      :       0.00u       0.00s       0.00w     23 calls
DIISManager::extrapolate:       0.00u       0.00s       0.00w     22 calls
DIISManager::extrapolate: bMatrix setup:       0.00u       0.00s       0.00w     22 calls
DIISManager::extrapolate: bMatrix pseudoinverse:       0.00u       0.00s       0.00w     22 calls
DIISManager::extrapolate: form new data:       0.00u       0.00s       0.00w     22 calls

***********************************************************

Host: Kevins-MacBook-Pro.local

Timers On : Mon Oct 13 14:18:55 2014
Timers Off: Mon Oct 13 14:18:56 2014

Wall Time:        1.00 seconds

JK: (A|mn)  :       0.02u       0.00s       0.00w      1 call
JK: (A|Q)^-1/2:       0.07u       0.00s       0.00w      1 call
JK: (Q|mn)  :       0.00u       0.00s       0.00w      1 call
Form H      :       0.00u       0.02s       0.00w      1 call
Form S/X    :       0.00u       0.00s       0.00w      1 call
Guess       :       0.00u       0.00s       0.00w      1 call
Form G      :       0.02u       0.00s       0.00w     23 calls
JK: D       :       0.00u       0.00s       0.00w     23 calls
JK: USO2AO  :       0.00u       0.00s       0.00w     23 calls
JK: JK      :       0.00u       0.00s       0.00w     23 calls
JK: J       :       0.00u       0.00s       0.00w     23 calls
JK: J1      :       0.00u       0.00s       0.00w     23 calls
JK: J2      :       0.00u       0.00s       0.00w     23 calls
JK: K       :       0.00u       0.00s       0.00w     23 calls
JK: K1      :       0.00u       0.00s       0.00w     23 calls
JK: K2      :       0.00u       0.00s       0.00w     23 calls
JK: AO2USO  :       0.00u       0.00s       0.00w     23 calls
Form F      :       0.00u       0.00s       0.00w     23 calls
DIIS        :       0.00u       0.00s       0.00w     23 calls
DIISManager::add_entry:       0.00u       0.00s       0.00w     23 calls
Form C      :       0.02u       0.00s       0.00w     23 calls
Form D      :       0.00u       0.00s       0.00w     23 calls
DIISManager::extrapolate:       0.00u       0.00s       0.00w     22 calls
DIISManager::extrapolate: bMatrix setup:       0.00u       0.00s       0.00w     22 calls
DIISManager::extrapolate: bMatrix pseudoinverse:       0.00u       0.00s       0.00w     22 calls
DIISManager::extrapolate: form new data:       0.00u       0.00s       0.00w     22 calls

***********************************************************

Host: Kevins-MacBook-Pro.local

Timers On : Mon Oct 13 14:20:57 2014
Timers Off: Mon Oct 13 14:20:58 2014

Wall Time:        1.00 seconds

JK: (A|mn)  :       0.02u       0.00s       0.00w      1 call
JK: (A|Q)^-1/2:       0.08u       0.00s       0.00w      1 call
JK: (Q|mn)  :       0.00u       0.00s       0.00w      1 call
Form H      :       0.00u       0.00s       0.00w      1 call
Form S/X    :       0.00u       0.00s       0.00w      1 call
Guess       :       0.00u       0.00s       0.00w      1 call
Form G      :       0.02u       0.00s       0.00w     23 calls
JK: D       :       0.00u       0.00s       0.00w     23 calls
JK: USO2AO  :       0.02u       0.00s       0.00w     23 calls
JK: JK      :       0.00u       0.00s       0.00w     23 calls
JK: J       :       0.00u       0.00s       0.00w     23 calls
JK: J1      :       0.00u       0.00s       0.00w     23 calls
JK: J2      :       0.00u       0.00s       0.00w     23 calls
JK: K       :       0.00u       0.00s       0.00w     23 calls
JK: K1      :       0.00u       0.00s       0.00w     23 calls
JK: K2      :       0.00u       0.00s       0.00w     23 calls
JK: AO2USO  :       0.00u       0.00s       0.00w     23 calls
Form F      :       0.00u       0.00s       0.00w     23 calls
DIIS        :       0.00u       0.00s       0.00w     23 calls
DIISManager::add_entry:       0.00u       0.00s       0.00w     23 calls
Form C      :       0.00u       0.00s       0.00w     23 calls
Form D      :       0.00u       0.00s       0.00w     23 calls
DIISManager::extrapolate:       0.00u       0.00s       0.00w     22 calls
DIISManager::extrapolate: bMatrix setup:       0.00u       0.00s       0.00w     22 calls
DIISManager::extrapolate: bMatrix pseudoinverse:       0.00u       0.00s       0.00w     22 calls
DIISManager::extrapolate: form new data:       0.00u       0.00s       0.00w     22 calls

***********************************************************

Host: Kevins-MacBook-Pro.local

Timers On : Mon Oct 13 14:21:55 2014
Timers Off: Mon Oct 13 14:21:56 2014

Wall Time:        1.00 seconds

JK: (A|mn)  :       0.02u       0.00s       0.00w      1 call
JK: (A|Q)^-1/2:       0.08u       0.00s       0.00w      1 call
JK: (Q|mn)  :       0.00u       0.00s       0.00w      1 call
Form H      :       0.00u       0.00s       0.00w      1 call
Form S/X    :       0.00u       0.00s       0.00w      1 call
Guess       :       0.02u       0.00s       0.00w      1 call
Form G      :       0.02u       0.00s       0.00w     23 calls
JK: D       :       0.00u       0.00s       0.00w     23 calls
JK: USO2AO  :       0.00u       0.00s       0.00w     23 calls
JK: JK      :       0.02u       0.00s       0.00w     23 calls
JK: J       :       0.00u       0.00s       0.00w     23 calls
JK: J1      :       0.00u       0.00s       0.00w     23 calls
JK: J2      :       0.00u       0.00s       0.00w     23 calls
JK: K       :       0.02u       0.00s       0.00w     23 calls
JK: K1      :       0.02u       0.00s       0.00w     23 calls
JK: K2      :       0.00u       0.00s       0.00w     23 calls
JK: AO2USO  :       0.00u       0.00s       0.00w     23 calls
Form F      :       0.00u       0.00s       0.00w     23 calls
DIIS        :       0.00u       0.00s       0.00w     23 calls
DIISManager::add_entry:       0.00u       0.00s       0.00w     23 calls
Form C      :       0.00u       0.00s       0.00w     23 calls
Form D      :       0.00u       0.00s       0.00w     23 calls
DIISManager::extrapolate:       0.00u       0.00s       0.00w     22 calls
DIISManager::extrapolate: bMatrix setup:       0.00u       0.00s       0.00w     22 calls
DIISManager::extrapolate: bMatrix pseudoinverse:       0.00u       0.00s       0.00w     22 calls
DIISManager::extrapolate: form new data:       0.00u       0.00s       0.00w     22 calls

***********************************************************

Host: Kevins-MacBook-Pro.local

Timers On : Mon Oct 13 14:24:46 2014
Timers Off: Mon Oct 13 14:24:46 2014

Wall Time:        0.00 seconds

JK: (A|mn)  :       0.02u       0.00s       0.00w      1 call
JK: (A|Q)^-1/2:       0.08u       0.00s       0.00w      1 call
JK: (Q|mn)  :       0.00u       0.00s       0.00w      1 call
Form H      :       0.00u       0.00s       0.00w      1 call
Form S/X    :       0.00u       0.00s       0.00w      1 call
Guess       :       0.00u       0.00s       0.00w      1 call
Form G      :       0.03u       0.00s       0.00w     23 calls
JK: D       :       0.00u       0.00s       0.00w     23 calls
JK: USO2AO  :       0.00u       0.00s       0.00w     23 calls
JK: JK      :       0.03u       0.00s       0.00w     23 calls
JK: J       :       0.02u       0.00s       0.00w     23 calls
JK: J1      :       0.00u       0.00s       0.00w     23 calls
JK: J2      :       0.02u       0.00s       0.00w     23 calls
JK: K       :       0.02u       0.00s       0.00w     23 calls
JK: K1      :       0.02u       0.00s       0.00w     23 calls
JK: K2      :       0.00u       0.00s       0.00w     23 calls
JK: AO2USO  :       0.00u       0.00s       0.00w     23 calls
Form F      :       0.00u       0.00s       0.00w     23 calls
DIIS        :       0.00u       0.00s       0.00w     23 calls
DIISManager::add_entry:       0.00u       0.00s       0.00w     23 calls
Form C      :       0.00u       0.00s       0.00w     23 calls
Form D      :       0.00u       0.00s       0.00w     23 calls
DIISManager::extrapolate:       0.00u       0.00s       0.00w     22 calls
DIISManager::extrapolate: bMatrix setup:       0.00u       0.00s       0.00w     22 calls
DIISManager::extrapolate: bMatrix pseudoinverse:       0.00u       0.00s       0.00w     22 calls
DIISManager::extrapolate: form new data:       0.00u       0.00s       0.00w     22 calls

***********************************************************

Host: Kevins-MacBook-Pro.local

Timers On : Mon Oct 13 14:27:54 2014
Timers Off: Mon Oct 13 14:27:55 2014

Wall Time:        1.00 seconds

JK: (A|mn)  :       0.02u       0.00s       0.00w      1 call
JK: (A|Q)^-1/2:       0.08u       0.00s       0.00w      1 call
JK: (Q|mn)  :       0.00u       0.00s       0.00w      1 call
Form H      :       0.00u       0.00s       0.00w      1 call
Form S/X    :       0.00u       0.00s       0.00w      1 call
Guess       :       0.00u       0.00s       0.00w      1 call
Form G      :       0.02u       0.00s       0.00w     23 calls
JK: D       :       0.00u       0.00s       0.00w     23 calls
JK: USO2AO  :       0.00u       0.00s       0.00w     23 calls
JK: JK      :       0.02u       0.00s       0.00w     23 calls
JK: J       :       0.00u       0.00s       0.00w     23 calls
JK: J1      :       0.00u       0.00s       0.00w     23 calls
JK: J2      :       0.00u       0.00s       0.00w     23 calls
JK: K       :       0.02u       0.00s       0.00w     23 calls
JK: K1      :       0.02u       0.00s       0.00w     23 calls
JK: K2      :       0.00u       0.00s       0.00w     23 calls
JK: AO2USO  :       0.00u       0.00s       0.00w     23 calls
Form F      :       0.00u       0.00s       0.00w     23 calls
DIIS        :       0.00u       0.00s       0.00w     23 calls
DIISManager::add_entry:       0.00u       0.00s       0.00w     23 calls
Form C      :       0.00u       0.00s       0.00w     23 calls
Form D      :       0.00u       0.00s       0.00w     23 calls
DIISManager::extrapolate:       0.00u       0.00s       0.00w     22 calls
DIISManager::extrapolate: bMatrix setup:       0.00u       0.00s       0.00w     22 calls
DIISManager::extrapolate: bMatrix pseudoinverse:       0.00u       0.00s       0.00w     22 calls
DIISManager::extrapolate: form new data:       0.00u       0.00s       0.00w     22 calls

***********************************************************

Host: Kevins-MacBook-Pro.local

Timers On : Mon Oct 13 14:29:50 2014
Timers Off: Mon Oct 13 14:29:51 2014

Wall Time:        1.00 seconds

JK: (A|mn)  :       0.02u       0.00s       0.00w      1 call
JK: (A|Q)^-1/2:       0.08u       0.00s       0.00w      1 call
JK: (Q|mn)  :       0.00u       0.00s       0.00w      1 call
Form H      :       0.00u       0.00s       0.00w      1 call
Form S/X    :       0.00u       0.00s       0.00w      1 call
Guess       :       0.00u       0.00s       0.00w      1 call
Form G      :       0.03u       0.00s       0.00w     23 calls
JK: D       :       0.00u       0.00s       0.00w     23 calls
JK: USO2AO  :       0.00u       0.00s       0.00w     23 calls
JK: JK      :       0.02u       0.00s       0.00w     23 calls
JK: J       :       0.00u       0.00s       0.00w     23 calls
JK: J1      :       0.00u       0.00s       0.00w     23 calls
JK: J2      :       0.00u       0.00s       0.00w     23 calls
JK: K       :       0.00u       0.00s       0.00w     23 calls
JK: K1      :       0.00u       0.00s       0.00w     23 calls
JK: K2      :       0.00u       0.00s       0.00w     23 calls
JK: AO2USO  :       0.00u       0.00s       0.00w     23 calls
Form F      :       0.00u       0.00s       0.00w     23 calls
DIIS        :       0.00u       0.00s       0.00w     23 calls
DIISManager::add_entry:       0.00u       0.00s       0.00w     23 calls
Form C      :       0.00u       0.00s       0.00w     23 calls
Form D      :       0.00u       0.00s       0.00w     23 calls
DIISManager::extrapolate:       0.00u       0.00s       0.00w     22 calls
DIISManager::extrapolate: bMatrix setup:       0.00u       0.00s       0.00w     22 calls
DIISManager::extrapolate: bMatrix pseudoinverse:       0.00u       0.00s       0.00w     22 calls
DIISManager::extrapolate: form new data:       0.00u       0.00s       0.00w     22 calls

***********************************************************

Host: Kevins-MacBook-Pro.local

Timers On : Mon Oct 13 15:24:34 2014
Timers Off: Mon Oct 13 15:24:35 2014

Wall Time:        1.00 seconds

JK: (A|mn)  :       0.02u       0.00s       0.00w      1 call
JK: (A|Q)^-1/2:       0.07u       0.02s       0.00w      1 call
JK: (Q|mn)  :       0.02u       0.00s       0.00w      1 call
Form H      :       0.00u       0.00s       0.00w      1 call
Form S/X    :       0.00u       0.00s       0.00w      1 call
Guess       :       0.00u       0.00s       0.00w      1 call
Form G      :       0.00u       0.00s       0.00w     23 calls
JK: D       :       0.00u       0.00s       0.00w     23 calls
JK: USO2AO  :       0.00u       0.00s       0.00w     23 calls
JK: JK      :       0.00u       0.00s       0.00w     23 calls
JK: J       :       0.00u       0.00s       0.00w     23 calls
JK: J1      :       0.00u       0.00s       0.00w     23 calls
JK: J2      :       0.00u       0.00s       0.00w     23 calls
JK: K       :       0.00u       0.00s       0.00w     23 calls
JK: K1      :       0.00u       0.00s       0.00w     23 calls
JK: K2      :       0.00u       0.00s       0.00w     23 calls
JK: AO2USO  :       0.00u       0.00s       0.00w     23 calls
Form F      :       0.00u       0.00s       0.00w     23 calls
DIIS        :       0.02u       0.00s       0.00w     23 calls
DIISManager::add_entry:       0.00u       0.00s       0.00w     23 calls
Form C      :       0.00u       0.00s       0.00w     23 calls
Form D      :       0.00u       0.00s       0.00w     23 calls
DIISManager::extrapolate:       0.02u       0.00s       0.00w     22 calls
DIISManager::extrapolate: bMatrix setup:       0.00u       0.00s       0.00w     22 calls
DIISManager::extrapolate: bMatrix pseudoinverse:       0.00u       0.00s       0.00w     22 calls
DIISManager::extrapolate: form new data:       0.02u       0.00s       0.00w     22 calls

***********************************************************

Host: Kevins-MacBook-Pro.local

Timers On : Mon Oct 13 17:30:59 2014
Timers Off: Mon Oct 13 17:30:59 2014

Wall Time:        0.00 seconds

JK: (A|mn)  :       0.02u       0.00s       0.00w      1 call
JK: (A|Q)^-1/2:       0.08u       0.00s       0.00w      1 call
JK: (Q|mn)  :       0.00u       0.00s       0.00w      1 call
Form H      :       0.00u       0.00s       0.00w      1 call
Form S/X    :       0.00u       0.00s       0.00w      1 call
Guess       :       0.00u       0.00s       0.00w      1 call
Form G      :       0.00u       0.00s       0.00w     23 calls
JK: D       :       0.00u       0.00s       0.00w     23 calls
JK: USO2AO  :       0.00u       0.00s       0.00w     23 calls
JK: JK      :       0.00u       0.00s       0.00w     23 calls
JK: J       :       0.00u       0.00s       0.00w     23 calls
JK: J1      :       0.00u       0.00s       0.00w     23 calls
JK: J2      :       0.00u       0.00s       0.00w     23 calls
JK: K       :       0.00u       0.00s       0.00w     23 calls
JK: K1      :       0.00u       0.00s       0.00w     23 calls
JK: K2      :       0.00u       0.00s       0.00w     23 calls
JK: AO2USO  :       0.00u       0.00s       0.00w     23 calls
Form F      :       0.00u       0.00s       0.00w     23 calls
DIIS        :       0.02u       0.00s       0.00w     23 calls
DIISManager::add_entry:       0.00u       0.00s       0.00w     23 calls
Form C      :       0.00u       0.00s       0.00w     23 calls
Form D      :       0.00u       0.00s       0.00w     23 calls
DIISManager::extrapolate:       0.02u       0.00s       0.00w     22 calls
DIISManager::extrapolate: bMatrix setup:       0.00u       0.00s       0.00w     22 calls
DIISManager::extrapolate: bMatrix pseudoinverse:       0.00u       0.00s       0.00w     22 calls
DIISManager::extrapolate: form new data:       0.02u       0.00s       0.00w     22 calls

***********************************************************

Host: Kevins-MacBook-Pro.local

Timers On : Mon Oct 13 17:41:41 2014
Timers Off: Mon Oct 13 17:41:42 2014

Wall Time:        1.00 seconds

JK: (A|mn)  :       0.02u       0.00s       0.00w      1 call
JK: (A|Q)^-1/2:       0.08u       0.00s       0.00w      1 call
JK: (Q|mn)  :       0.00u       0.00s       0.00w      1 call
Form H      :       0.00u       0.00s       0.00w      1 call
Form S/X    :       0.00u       0.00s       0.00w      1 call
Guess       :       0.00u       0.00s       0.00w      1 call
Form G      :       0.02u       0.00s       0.00w     23 calls
JK: D       :       0.00u       0.00s       0.00w     23 calls
JK: USO2AO  :       0.00u       0.00s       0.00w     23 calls
JK: JK      :       0.02u       0.00s       0.00w     23 calls
JK: J       :       0.00u       0.00s       0.00w     23 calls
JK: J1      :       0.00u       0.00s       0.00w     23 calls
JK: J2      :       0.00u       0.00s       0.00w     23 calls
JK: K       :       0.02u       0.00s       0.00w     23 calls
JK: K1      :       0.02u       0.00s       0.00w     23 calls
JK: K2      :       0.00u       0.00s       0.00w     23 calls
JK: AO2USO  :       0.00u       0.00s       0.00w     23 calls
Form F      :       0.00u       0.00s       0.00w     23 calls
DIIS        :       0.00u       0.00s       0.00w     23 calls
DIISManager::add_entry:       0.00u       0.00s       0.00w     23 calls
Form C      :       0.02u       0.00s       0.00w     23 calls
Form D      :       0.00u       0.00s       0.00w     23 calls
DIISManager::extrapolate:       0.00u       0.00s       0.00w     22 calls
DIISManager::extrapolate: bMatrix setup:       0.00u       0.00s       0.00w     22 calls
DIISManager::extrapolate: bMatrix pseudoinverse:       0.00u       0.00s       0.00w     22 calls
DIISManager::extrapolate: form new data:       0.00u       0.00s       0.00w     22 calls

***********************************************************

Host: Kevins-MacBook-Pro.local

Timers On : Mon Oct 13 17:46:17 2014
Timers Off: Mon Oct 13 17:46:17 2014

Wall Time:        0.00 seconds

JK: (A|mn)  :       0.02u       0.00s       0.00w      1 call
JK: (A|Q)^-1/2:       0.08u       0.00s       0.00w      1 call
JK: (Q|mn)  :       0.00u       0.00s       0.00w      1 call
Form H      :       0.00u       0.00s       0.00w      1 call
Form S/X    :       0.00u       0.00s       0.00w      1 call
Guess       :       0.00u       0.00s       0.00w      1 call
Form G      :       0.02u       0.00s       0.00w     23 calls
JK: D       :       0.00u       0.00s       0.00w     23 calls
JK: USO2AO  :       0.00u       0.00s       0.00w     23 calls
JK: JK      :       0.02u       0.00s       0.00w     23 calls
JK: J       :       0.00u       0.00s       0.00w     23 calls
JK: J1      :       0.00u       0.00s       0.00w     23 calls
JK: J2      :       0.00u       0.00s       0.00w     23 calls
JK: K       :       0.02u       0.00s       0.00w     23 calls
JK: K1      :       0.02u       0.00s       0.00w     23 calls
JK: K2      :       0.00u       0.00s       0.00w     23 calls
JK: AO2USO  :       0.00u       0.00s       0.00w     23 calls
Form F      :       0.00u       0.00s       0.00w     23 calls
DIIS        :       0.00u       0.00s       0.00w     23 calls
DIISManager::add_entry:       0.00u       0.00s       0.00w     23 calls
Form C      :       0.00u       0.00s       0.00w     23 calls
Form D      :       0.00u       0.00s       0.00w     23 calls
DIISManager::extrapolate:       0.00u       0.00s       0.00w     22 calls
DIISManager::extrapolate: bMatrix setup:       0.00u       0.00s       0.00w     22 calls
DIISManager::extrapolate: bMatrix pseudoinverse:       0.00u       0.00s       0.00w     22 calls
DIISManager::extrapolate: form new data:       0.00u       0.00s       0.00w     22 calls

***********************************************************

Host: Kevins-MacBook-Pro.local

Timers On : Mon Oct 13 17:47:01 2014
Timers Off: Mon Oct 13 17:47:01 2014

Wall Time:        0.00 seconds

JK: (A|mn)  :       0.02u       0.00s       0.00w      1 call
JK: (A|Q)^-1/2:       0.08u       0.00s       0.00w      1 call
JK: (Q|mn)  :       0.00u       0.00s       0.00w      1 call
Form H      :       0.00u       0.00s       0.00w      1 call
Form S/X    :       0.00u       0.00s       0.00w      1 call
Guess       :       0.00u       0.00s       0.00w      1 call
Form G      :       0.03u       0.00s       0.00w     23 calls
JK: D       :       0.00u       0.00s       0.00w     23 calls
JK: USO2AO  :       0.00u       0.00s       0.00w     23 calls
JK: JK      :       0.03u       0.00s       0.00w     23 calls
JK: J       :       0.00u       0.00s       0.00w     23 calls
JK: J1      :       0.00u       0.00s       0.00w     23 calls
JK: J2      :       0.00u       0.00s       0.00w     23 calls
JK: K       :       0.03u       0.00s       0.00w     23 calls
JK: K1      :       0.03u       0.00s       0.00w     23 calls
JK: K2      :       0.00u       0.00s       0.00w     23 calls
JK: AO2USO  :       0.00u       0.00s       0.00w     23 calls
Form F      :       0.00u       0.00s       0.00w     23 calls
DIIS        :       0.00u       0.00s       0.00w     23 calls
DIISManager::add_entry:       0.00u       0.00s       0.00w     23 calls
Form C      :       0.00u       0.00s       0.00w     23 calls
Form D      :       0.00u       0.00s       0.00w     23 calls
DIISManager::extrapolate:       0.00u       0.00s       0.00w     22 calls
DIISManager::extrapolate: bMatrix setup:       0.00u       0.00s       0.00w     22 calls
DIISManager::extrapolate: bMatrix pseudoinverse:       0.00u       0.00s       0.00w     22 calls
DIISManager::extrapolate: form new data:       0.00u       0.00s       0.00w     22 calls

***********************************************************

Host: Kevins-MacBook-Pro.local

Timers On : Mon Oct 13 17:48:27 2014
Timers Off: Mon Oct 13 17:48:27 2014

Wall Time:        0.00 seconds

JK: (A|mn)  :       0.02u       0.00s       0.00w      1 call
JK: (A|Q)^-1/2:       0.08u       0.00s       0.00w      1 call
JK: (Q|mn)  :       0.00u       0.00s       0.00w      1 call
Form H      :       0.00u       0.00s       0.00w      1 call
Form S/X    :       0.00u       0.00s       0.00w      1 call
Guess       :       0.00u       0.00s       0.00w      1 call
Form G      :       0.00u       0.00s       0.00w     23 calls
JK: D       :       0.00u       0.00s       0.00w     23 calls
JK: USO2AO  :       0.00u       0.00s       0.00w     23 calls
JK: JK      :       0.00u       0.00s       0.00w     23 calls
JK: J       :       0.00u       0.00s       0.00w     23 calls
JK: J1      :       0.00u       0.00s       0.00w     23 calls
JK: J2      :       0.00u       0.00s       0.00w     23 calls
JK: K       :       0.00u       0.00s       0.00w     23 calls
JK: K1      :       0.00u       0.00s       0.00w     23 calls
JK: K2      :       0.00u       0.00s       0.00w     23 calls
JK: AO2USO  :       0.00u       0.00s       0.00w     23 calls
Form F      :       0.00u       0.00s       0.00w     23 calls
DIIS        :       0.02u       0.00s       0.00w     23 calls
DIISManager::add_entry:       0.02u       0.00s       0.00w     23 calls
Form C      :       0.00u       0.00s       0.00w     23 calls
Form D      :       0.00u       0.00s       0.00w     23 calls
DIISManager::extrapolate:       0.00u       0.00s       0.00w     22 calls
DIISManager::extrapolate: bMatrix setup:       0.00u       0.00s       0.00w     22 calls
DIISManager::extrapolate: bMatrix pseudoinverse:       0.00u       0.00s       0.00w     22 calls
DIISManager::extrapolate: form new data:       0.00u       0.00s       0.00w     22 calls

***********************************************************

Host: Kevins-MacBook-Pro.local

Timers On : Mon Oct 13 17:49:33 2014
Timers Off: Mon Oct 13 17:49:33 2014

Wall Time:        0.00 seconds

JK: (A|mn)  :       0.02u       0.00s       0.00w      1 call
JK: (A|Q)^-1/2:       0.08u       0.00s       0.00w      1 call
JK: (Q|mn)  :       0.00u       0.00s       0.00w      1 call
Form H      :       0.00u       0.00s       0.00w      1 call
Form S/X    :       0.00u       0.00s       0.00w      1 call
Guess       :       0.00u       0.00s       0.00w      1 call
Form G      :       0.00u       0.00s       0.00w     23 calls
JK: D       :       0.00u       0.00s       0.00w     23 calls
JK: USO2AO  :       0.00u       0.00s       0.00w     23 calls
JK: JK      :       0.00u       0.00s       0.00w     23 calls
JK: J       :       0.00u       0.00s       0.00w     23 calls
JK: J1      :       0.00u       0.00s       0.00w     23 calls
JK: J2      :       0.00u       0.00s       0.00w     23 calls
JK: K       :       0.00u       0.00s       0.00w     23 calls
JK: K1      :       0.00u       0.00s       0.00w     23 calls
JK: K2      :       0.00u       0.00s       0.00w     23 calls
JK: AO2USO  :       0.00u       0.00s       0.00w     23 calls
Form F      :       0.00u       0.00s       0.00w     23 calls
DIIS        :       0.00u       0.00s       0.00w     23 calls
DIISManager::add_entry:       0.00u       0.00s       0.00w     23 calls
Form C      :       0.02u       0.00s       0.00w     23 calls
Form D      :       0.00u       0.00s       0.00w     23 calls
DIISManager::extrapolate:       0.00u       0.00s       0.00w     22 calls
DIISManager::extrapolate: bMatrix setup:       0.00u       0.00s       0.00w     22 calls
DIISManager::extrapolate: bMatrix pseudoinverse:       0.00u       0.00s       0.00w     22 calls
DIISManager::extrapolate: form new data:       0.00u       0.00s       0.00w     22 calls

***********************************************************

Host: Kevins-MacBook-Pro.local

Timers On : Mon Oct 13 17:58:13 2014
Timers Off: Mon Oct 13 17:58:13 2014

Wall Time:        0.00 seconds

JK: (A|mn)  :       0.02u       0.00s       0.00w      1 call
JK: (A|Q)^-1/2:       0.08u       0.00s       0.00w      1 call
JK: (Q|mn)  :       0.00u       0.00s       0.00w      1 call
Form H      :       0.00u       0.00s       0.00w      1 call
Form S/X    :       0.00u       0.00s       0.00w      1 call
Guess       :       0.00u       0.00s       0.00w      1 call
Form G      :       0.03u       0.00s       0.00w     23 calls
JK: D       :       0.00u       0.00s       0.00w     23 calls
JK: USO2AO  :       0.00u       0.00s       0.00w     23 calls
JK: JK      :       0.03u       0.00s       0.00w     23 calls
JK: J       :       0.02u       0.00s       0.00w     23 calls
JK: J1      :       0.00u       0.00s       0.00w     23 calls
JK: J2      :       0.02u       0.00s       0.00w     23 calls
JK: K       :       0.00u       0.00s       0.00w     23 calls
JK: K1      :       0.00u       0.00s       0.00w     23 calls
JK: K2      :       0.00u       0.00s       0.00w     23 calls
JK: AO2USO  :       0.00u       0.00s       0.00w     23 calls
Form F      :       0.00u       0.00s       0.00w     23 calls
DIIS        :       0.00u       0.00s       0.00w     23 calls
DIISManager::add_entry:       0.00u       0.00s       0.00w     23 calls
Form C      :       0.00u       0.00s       0.00w     23 calls
Form D      :       0.00u       0.00s       0.00w     23 calls
DIISManager::extrapolate:       0.00u       0.00s       0.00w     22 calls
DIISManager::extrapolate: bMatrix setup:       0.00u       0.00s       0.00w     22 calls
DIISManager::extrapolate: bMatrix pseudoinverse:       0.00u       0.00s       0.00w     22 calls
DIISManager::extrapolate: form new data:       0.00u       0.00s       0.00w     22 calls

***********************************************************

Host: Kevins-MacBook-Pro.local

Timers On : Mon Oct 13 18:39:16 2014
Timers Off: Mon Oct 13 18:39:17 2014

Wall Time:        1.00 seconds

JK: (A|mn)  :       0.02u       0.00s       0.00w      1 call
JK: (A|Q)^-1/2:       0.08u       0.00s       0.00w      1 call
JK: (Q|mn)  :       0.00u       0.00s       0.00w      1 call
Form H      :       0.00u       0.00s       0.00w      1 call
Form S/X    :       0.00u       0.00s       0.00w      1 call
Guess       :       0.00u       0.00s       0.00w      1 call
Form G      :       0.00u       0.00s       0.00w     23 calls
JK: D       :       0.00u       0.00s       0.00w     23 calls
JK: USO2AO  :       0.00u       0.00s       0.00w     23 calls
JK: JK      :       0.00u       0.00s       0.00w     23 calls
JK: J       :       0.00u       0.00s       0.00w     23 calls
JK: J1      :       0.00u       0.00s       0.00w     23 calls
JK: J2      :       0.00u       0.00s       0.00w     23 calls
JK: K       :       0.00u       0.00s       0.00w     23 calls
JK: K1      :       0.00u       0.00s       0.00w     23 calls
JK: K2      :       0.00u       0.00s       0.00w     23 calls
JK: AO2USO  :       0.00u       0.00s       0.00w     23 calls
Form F      :       0.00u       0.00s       0.00w     23 calls
DIIS        :       0.02u       0.00s       0.00w     23 calls
DIISManager::add_entry:       0.00u       0.00s       0.00w     23 calls
Form C      :       0.02u       0.00s       0.00w     23 calls
Form D      :       0.00u       0.00s       0.00w     23 calls
DIISManager::extrapolate:       0.02u       0.00s       0.00w     22 calls
DIISManager::extrapolate: bMatrix setup:       0.00u       0.00s       0.00w     22 calls
DIISManager::extrapolate: bMatrix pseudoinverse:       0.00u       0.00s       0.00w     22 calls
DIISManager::extrapolate: form new data:       0.02u       0.00s       0.00w     22 calls

***********************************************************

Host: Kevins-MacBook-Pro.local

Timers On : Mon Oct 13 18:42:32 2014
Timers Off: Mon Oct 13 18:42:33 2014

Wall Time:        1.00 seconds

JK: (A|mn)  :       0.02u       0.00s       0.00w      1 call
JK: (A|Q)^-1/2:       0.08u       0.00s       0.00w      1 call
JK: (Q|mn)  :       0.00u       0.00s       0.00w      1 call
Form H      :       0.00u       0.00s       0.00w      1 call
Form S/X    :       0.00u       0.00s       0.00w      1 call
Guess       :       0.00u       0.00s       0.00w      1 call
Form G      :       0.00u       0.00s       0.00w     23 calls
JK: D       :       0.00u       0.00s       0.00w     23 calls
JK: USO2AO  :       0.00u       0.00s       0.00w     23 calls
JK: JK      :       0.00u       0.00s       0.00w     23 calls
JK: J       :       0.00u       0.00s       0.00w     23 calls
JK: J1      :       0.00u       0.00s       0.00w     23 calls
JK: J2      :       0.00u       0.00s       0.00w     23 calls
JK: K       :       0.00u       0.00s       0.00w     23 calls
JK: K1      :       0.00u       0.00s       0.00w     23 calls
JK: K2      :       0.00u       0.00s       0.00w     23 calls
JK: AO2USO  :       0.00u       0.00s       0.00w     23 calls
Form F      :       0.00u       0.00s       0.00w     23 calls
DIIS        :       0.03u       0.00s       0.00w     23 calls
DIISManager::add_entry:       0.00u       0.00s       0.00w     23 calls
Form C      :       0.00u       0.00s       0.00w     23 calls
Form D      :       0.00u       0.00s       0.00w     23 calls
DIISManager::extrapolate:       0.02u       0.00s       0.00w     22 calls
DIISManager::extrapolate: bMatrix setup:       0.02u       0.00s       0.00w     22 calls
DIISManager::extrapolate: bMatrix pseudoinverse:       0.00u       0.00s       0.00w     22 calls
DIISManager::extrapolate: form new data:       0.00u       0.00s       0.00w     22 calls

***********************************************************

Host: Kevins-MacBook-Pro.local

Timers On : Mon Oct 13 18:44:45 2014
Timers Off: Mon Oct 13 18:44:45 2014

Wall Time:        0.00 seconds

JK: (A|mn)  :       0.02u       0.00s       0.00w      1 call
JK: (A|Q)^-1/2:       0.07u       0.00s       0.00w      1 call
JK: (Q|mn)  :       0.00u       0.00s       0.00w      1 call
Form H      :       0.00u       0.00s       0.00w      1 call
Form S/X    :       0.00u       0.00s       0.00w      1 call
Guess       :       0.00u       0.00s       0.00w      1 call
Form G      :       0.02u       0.00s       0.00w     23 calls
JK: D       :       0.00u       0.00s       0.00w     23 calls
JK: USO2AO  :       0.00u       0.00s       0.00w     23 calls
JK: JK      :       0.00u       0.00s       0.00w     23 calls
JK: J       :       0.00u       0.00s       0.00w     23 calls
JK: J1      :       0.00u       0.00s       0.00w     23 calls
JK: J2      :       0.00u       0.00s       0.00w     23 calls
JK: K       :       0.00u       0.00s       0.00w     23 calls
JK: K1      :       0.00u       0.00s       0.00w     23 calls
JK: K2      :       0.00u       0.00s       0.00w     23 calls
JK: AO2USO  :       0.00u       0.00s       0.00w     23 calls
Form F      :       0.00u       0.00s       0.00w     23 calls
DIIS        :       0.02u       0.00s       0.00w     23 calls
DIISManager::add_entry:       0.00u       0.00s       0.00w     23 calls
Form C      :       0.00u       0.00s       0.00w     23 calls
Form D      :       0.00u       0.00s       0.00w     23 calls
DIISManager::extrapolate:       0.02u       0.00s       0.00w     22 calls
DIISManager::extrapolate: bMatrix setup:       0.00u       0.00s       0.00w     22 calls
DIISManager::extrapolate: bMatrix pseudoinverse:       0.02u       0.00s       0.00w     22 calls
DIISManager::extrapolate: form new data:       0.00u       0.00s       0.00w     22 calls

***********************************************************

Host: Kevins-MacBook-Pro.local

Timers On : Mon Oct 13 18:48:22 2014
Timers Off: Mon Oct 13 18:48:23 2014

Wall Time:        1.00 seconds

JK: (A|mn)  :       0.02u       0.00s       0.00w      1 call
JK: (A|Q)^-1/2:       0.08u       0.00s       0.00w      1 call
JK: (Q|mn)  :       0.00u       0.00s       0.00w      1 call
Form H      :       0.00u       0.00s       0.00w      1 call
Form S/X    :       0.00u       0.00s       0.00w      1 call
Guess       :       0.00u       0.00s       0.00w      1 call
Form G      :       0.03u       0.00s       0.00w     23 calls
JK: D       :       0.00u       0.00s       0.00w     23 calls
JK: USO2AO  :       0.00u       0.00s       0.00w     23 calls
JK: JK      :       0.02u       0.00s       0.00w     23 calls
JK: J       :       0.00u       0.00s       0.00w     23 calls
JK: J1      :       0.00u       0.00s       0.00w     23 calls
JK: J2      :       0.00u       0.00s       0.00w     23 calls
JK: K       :       0.02u       0.00s       0.00w     23 calls
JK: K1      :       0.02u       0.00s       0.00w     23 calls
JK: K2      :       0.00u       0.00s       0.00w     23 calls
JK: AO2USO  :       0.00u       0.00s       0.00w     23 calls
Form F      :       0.00u       0.00s       0.00w     23 calls
DIIS        :       0.00u       0.00s       0.00w     23 calls
DIISManager::add_entry:       0.00u       0.00s       0.00w     23 calls
Form C      :       0.00u       0.00s       0.00w     23 calls
Form D      :       0.00u       0.00s       0.00w     23 calls
DIISManager::extrapolate:       0.00u       0.00s       0.00w     22 calls
DIISManager::extrapolate: bMatrix setup:       0.00u       0.00s       0.00w     22 calls
DIISManager::extrapolate: bMatrix pseudoinverse:       0.00u       0.00s       0.00w     22 calls
DIISManager::extrapolate: form new data:       0.00u       0.00s       0.00w     22 calls

***********************************************************

Host: Kevins-MacBook-Pro.local

Timers On : Mon Oct 13 18:49:13 2014
Timers Off: Mon Oct 13 18:49:13 2014

Wall Time:        0.00 seconds

JK: (A|mn)  :       0.02u       0.00s       0.00w      1 call
JK: (A|Q)^-1/2:       0.07u       0.00s       0.00w      1 call
JK: (Q|mn)  :       0.00u       0.00s       0.00w      1 call
Form H      :       0.00u       0.00s       0.00w      1 call
Form S/X    :       0.00u       0.00s       0.00w      1 call
Guess       :       0.00u       0.00s       0.00w      1 call
Form G      :       0.02u       0.00s       0.00w     23 calls
JK: D       :       0.00u       0.00s       0.00w     23 calls
JK: USO2AO  :       0.00u       0.00s       0.00w     23 calls
JK: JK      :       0.02u       0.00s       0.00w     23 calls
JK: J       :       0.00u       0.00s       0.00w     23 calls
JK: J1      :       0.00u       0.00s       0.00w     23 calls
JK: J2      :       0.00u       0.00s       0.00w     23 calls
JK: K       :       0.02u       0.00s       0.00w     23 calls
JK: K1      :       0.02u       0.00s       0.00w     23 calls
JK: K2      :       0.00u       0.00s       0.00w     23 calls
JK: AO2USO  :       0.00u       0.00s       0.00w     23 calls
Form F      :       0.00u       0.00s       0.00w     23 calls
DIIS        :       0.02u       0.00s       0.00w     23 calls
DIISManager::add_entry:       0.00u       0.00s       0.00w     23 calls
Form C      :       0.00u       0.00s       0.00w     23 calls
Form D      :       0.00u       0.00s       0.00w     23 calls
DIISManager::extrapolate:       0.02u       0.00s       0.00w     22 calls
DIISManager::extrapolate: bMatrix setup:       0.02u       0.00s       0.00w     22 calls
DIISManager::extrapolate: bMatrix pseudoinverse:       0.00u       0.00s       0.00w     22 calls
DIISManager::extrapolate: form new data:       0.00u       0.00s       0.00w     22 calls

***********************************************************

Host: Kevins-MacBook-Pro.local

Timers On : Mon Oct 13 18:52:57 2014
Timers Off: Mon Oct 13 18:52:58 2014

Wall Time:        1.00 seconds

JK: (A|mn)  :       0.02u       0.00s       0.00w      1 call
JK: (A|Q)^-1/2:       0.08u       0.00s       0.00w      1 call
JK: (Q|mn)  :       0.00u       0.00s       0.00w      1 call
Form H      :       0.00u       0.00s       0.00w      1 call
Form S/X    :       0.00u       0.00s       0.00w      1 call
Guess       :       0.00u       0.00s       0.00w      1 call
Form G      :       0.00u       0.00s       0.00w     23 calls
JK: D       :       0.00u       0.00s       0.00w     23 calls
JK: USO2AO  :       0.00u       0.00s       0.00w     23 calls
JK: JK      :       0.00u       0.00s       0.00w     23 calls
JK: J       :       0.00u       0.00s       0.00w     23 calls
JK: J1      :       0.00u       0.00s       0.00w     23 calls
JK: J2      :       0.00u       0.00s       0.00w     23 calls
JK: K       :       0.00u       0.00s       0.00w     23 calls
JK: K1      :       0.00u       0.00s       0.00w     23 calls
JK: K2      :       0.00u       0.00s       0.00w     23 calls
JK: AO2USO  :       0.00u       0.00s       0.00w     23 calls
Form F      :       0.00u       0.00s       0.00w     23 calls
DIIS        :       0.02u       0.00s       0.00w     23 calls
DIISManager::add_entry:       0.02u       0.00s       0.00w     23 calls
Form C      :       0.00u       0.00s       0.00w     23 calls
Form D      :       0.00u       0.00s       0.00w     23 calls
DIISManager::extrapolate:       0.00u       0.00s       0.00w     22 calls
DIISManager::extrapolate: bMatrix setup:       0.00u       0.00s       0.00w     22 calls
DIISManager::extrapolate: bMatrix pseudoinverse:       0.00u       0.00s       0.00w     22 calls
DIISManager::extrapolate: form new data:       0.00u       0.00s       0.00w     22 calls

***********************************************************

Host: Kevins-MacBook-Pro.local

Timers On : Tue Oct 14 16:57:24 2014
Timers Off: Tue Oct 14 16:57:25 2014

Wall Time:        1.00 seconds

JK: (A|mn)  :       0.02u       0.00s       0.00w      1 call
JK: (A|Q)^-1/2:       0.07u       0.00s       0.00w      1 call
JK: (Q|mn)  :       0.00u       0.00s       0.00w      1 call
Form H      :       0.02u       0.00s       0.00w      1 call
Form S/X    :       0.00u       0.00s       0.00w      1 call
Guess       :       0.00u       0.00s       0.00w      1 call
Form G      :       0.00u       0.00s       0.00w     23 calls
JK: D       :       0.00u       0.00s       0.00w     23 calls
JK: USO2AO  :       0.00u       0.00s       0.00w     23 calls
JK: JK      :       0.00u       0.00s       0.00w     23 calls
JK: J       :       0.00u       0.00s       0.00w     23 calls
JK: J1      :       0.00u       0.00s       0.00w     23 calls
JK: J2      :       0.00u       0.00s       0.00w     23 calls
JK: K       :       0.00u       0.00s       0.00w     23 calls
JK: K1      :       0.00u       0.00s       0.00w     23 calls
JK: K2      :       0.00u       0.00s       0.00w     23 calls
JK: AO2USO  :       0.00u       0.00s       0.00w     23 calls
Form F      :       0.00u       0.00s       0.00w     23 calls
DIIS        :       0.02u       0.00s       0.00w     23 calls
DIISManager::add_entry:       0.00u       0.00s       0.00w     23 calls
Form C      :       0.00u       0.00s       0.00w     23 calls
Form D      :       0.00u       0.00s       0.00w     23 calls
DIISManager::extrapolate:       0.02u       0.00s       0.00w     22 calls
DIISManager::extrapolate: bMatrix setup:       0.00u       0.00s       0.00w     22 calls
DIISManager::extrapolate: bMatrix pseudoinverse:       0.00u       0.00s       0.00w     22 calls
DIISManager::extrapolate: form new data:       0.00u       0.00s       0.00w     22 calls

***********************************************************

Host: Kevins-MacBook-Pro.local

Timers On : Tue Oct 14 17:00:58 2014
Timers Off: Tue Oct 14 17:00:58 2014

Wall Time:        0.00 seconds

JK: (A|mn)  :       0.02u       0.00s       0.00w      1 call
JK: (A|Q)^-1/2:       0.07u       0.00s       0.00w      1 call
JK: (Q|mn)  :       0.00u       0.00s       0.00w      1 call
Form H      :       0.00u       0.00s       0.00w      1 call
Form S/X    :       0.00u       0.00s       0.00w      1 call
Guess       :       0.00u       0.00s       0.00w      1 call
Form G      :       0.03u       0.00s       0.00w     23 calls
JK: D       :       0.00u       0.00s       0.00w     23 calls
JK: USO2AO  :       0.00u       0.00s       0.00w     23 calls
JK: JK      :       0.02u       0.00s       0.00w     23 calls
JK: J       :       0.00u       0.00s       0.00w     23 calls
JK: J1      :       0.00u       0.00s       0.00w     23 calls
JK: J2      :       0.00u       0.00s       0.00w     23 calls
JK: K       :       0.02u       0.00s       0.00w     23 calls
JK: K1      :       0.02u       0.00s       0.00w     23 calls
JK: K2      :       0.00u       0.00s       0.00w     23 calls
JK: AO2USO  :       0.00u       0.00s       0.00w     23 calls
Form F      :       0.00u       0.00s       0.00w     23 calls
DIIS        :       0.00u       0.00s       0.00w     23 calls
DIISManager::add_entry:       0.00u       0.00s       0.00w     23 calls
Form C      :       0.00u       0.00s       0.00w     23 calls
Form D      :       0.00u       0.00s       0.00w     23 calls
DIISManager::extrapolate:       0.00u       0.00s       0.00w     22 calls
DIISManager::extrapolate: bMatrix setup:       0.00u       0.00s       0.00w     22 calls
DIISManager::extrapolate: bMatrix pseudoinverse:       0.00u       0.00s       0.00w     22 calls
DIISManager::extrapolate: form new data:       0.00u       0.00s       0.00w     22 calls

***********************************************************

Host: Kevins-MacBook-Pro.local

Timers On : Tue Oct 14 17:01:31 2014
Timers Off: Tue Oct 14 17:01:31 2014

Wall Time:        0.00 seconds

JK: (A|mn)  :       0.02u       0.00s       0.00w      1 call
[...]
JK: (Q|mn)  :       0.00u       0.00s       0.00w      1 call
Form H      :       0.00u       0.00s       0.00w      1 call
Form S/X    :       0.00u       0.00s       0.00w      1 call
Guess       :       0.00u       0.00s       0.00w      1 call
Form G      :       0.02u       0.02s       0.00w     31 calls
JK: D       :       0.00u       0.00s       0.00w     34 calls
JK: USO2AO  :       0.00u       0.00s       0.00w     21 calls
JK: JK      :       0.02u       0.02s       0.00w     34 calls
JK: J       :       0.00u       0.00s       0.00w     21 calls
JK: J1      :       0.00u       0.00s       0.00w     21 calls
JK: J2      :       0.00u       0.00s       0.00w     21 calls
JK: K       :       0.02u       0.00s       0.00w     21 calls
JK: K1      :       0.02u       0.00s       0.00w     21 calls
JK: K2      :       0.00u       0.00s       0.00w     21 calls
JK: AO2USO  :       0.00u       0.00s       0.00w     21 calls
Form F      :       0.00u       0.00s       0.00w     31 calls
DIIS        :       0.02u       0.00s       0.00w     31 calls
DIISManager::add_entry:       0.00u       0.00s       0.00w     31 calls
Form C      :       0.00u       0.00s       0.00w     31 calls
Form D      :       0.00u       0.00s       0.00w     31 calls
DIISManager::extrapolate:       0.02u       0.00s       0.00w     30 calls
DIISManager::extrapolate: bMatrix setup:       0.02u       0.00s       0.00w     30 calls
DIISManager::extrapolate: bMatrix pseudoinverse:       0.00u       0.00s       0.00w     30 calls
DIISManager::extrapolate: form new data:       0.00u       0.00s       0.00w     30 calls

***********************************************************

Host: Kevins-MacBook-Pro.local

Timers On : Sat Nov 22 15:34:26 2014
Timers Off: Sat Nov 22 15:34:27 2014

Wall Time:        1.00 seconds

JK: (A|mn)  :       0.02u       0.00s       0.00w      1 call
JK: (A|Q)^-1/2:       0.10u       0.00s       0.00w      1 call
JK: (Q|mn)  :       0.00u       0.00s       0.00w      1 call
Form H      :       0.00u       0.00s       0.00w      1 call
Form S/X    :       0.00u       0.00s       0.00w      1 call
Guess       :       0.00u       0.00s       0.00w      1 call
Form G      :       0.02u       0.00s       0.00w     31 calls
JK: D       :       0.00u       0.00s       0.00w     34 calls
JK: USO2AO  :       0.00u       0.00s       0.00w     21 calls
JK: JK      :       0.02u       0.00s       0.00w     34 calls
JK: J       :       0.00u       0.00s       0.00w     21 calls
JK: J1      :       0.00u       0.00s       0.00w     21 calls
JK: J2      :       0.00u       0.00s       0.00w     21 calls
JK: K       :       0.02u       0.00s       0.00w     21 calls
JK: K1      :       0.00u       0.00s       0.00w     21 calls
JK: K2      :       0.02u       0.00s       0.00w     21 calls
JK: AO2USO  :       0.00u       0.00s       0.00w     21 calls
Form F      :       0.00u       0.00s       0.00w     31 calls
DIIS        :       0.00u       0.02s       0.00w     31 calls
DIISManager::add_entry:       0.00u       0.00s       0.00w     31 calls
Form C      :       0.02u       0.00s       0.00w     31 calls
Form D      :       0.00u       0.00s       0.00w     31 calls
DIISManager::extrapolate:       0.00u       0.02s       0.00w     30 calls
DIISManager::extrapolate: bMatrix setup:       0.00u       0.02s       0.00w     30 calls
DIISManager::extrapolate: bMatrix pseudoinverse:       0.00u       0.00s       0.00w     30 calls
DIISManager::extrapolate: form new data:       0.00u       0.00s       0.00w     30 calls

***********************************************************

Host: Kevins-MacBook-Pro.local

Timers On : Sun Dec  7 20:20:27 2014
Timers Off: Sun Dec  7 20:20:28 2014

Wall Time:        1.00 seconds

JK: (A|mn)  :       0.02u       0.00s       0.00w      1 call
JK: (A|Q)^-1/2:       0.10u       0.00s       0.00w      1 call
JK: (Q|mn)  :       0.00u       0.00s       0.00w      1 call
Form H      :       0.00u       0.00s       0.00w      1 call
Form S/X    :       0.00u       0.00s       0.00w      1 call
Guess       :       0.00u       0.00s       0.00w      1 call
Form G      :       0.03u       0.00s       0.00w     31 calls
JK: D       :       0.00u       0.00s       0.00w     34 calls
JK: USO2AO  :       0.00u       0.00s       0.00w     21 calls
JK: JK      :       0.00u       0.00s       0.00w     34 calls
JK: J       :       0.00u       0.00s       0.00w     21 calls
JK: J1      :       0.00u       0.00s       0.00w     21 calls
JK: J2      :       0.00u       0.00s       0.00w     21 calls
JK: K       :       0.00u       0.00s       0.00w     21 calls
JK: K1      :       0.00u       0.00s       0.00w     21 calls
JK: K2      :       0.00u       0.00s       0.00w     21 calls
JK: AO2USO  :       0.00u       0.00s       0.00w     21 calls
Form F      :       0.00u       0.00s       0.00w     31 calls
DIIS        :       0.00u       0.00s       0.00w     31 calls
DIISManager::add_entry:       0.00u       0.00s       0.00w     31 calls
Form C      :       0.00u       0.00s       0.00w     31 calls
Form D      :       0.00u       0.00s       0.00w     31 calls
DIISManager::extrapolate:       0.00u       0.00s       0.00w     30 calls
DIISManager::extrapolate: bMatrix setup:       0.00u       0.00s       0.00w     30 calls
DIISManager::extrapolate: bMatrix pseudoinverse:       0.00u       0.00s       0.00w     30 calls
DIISManager::extrapolate: form new data:       0.00u       0.00s       0.00w     30 calls

***********************************************************

Host: Kevins-MacBook-Pro.local

Timers On : Sun Dec  7 20:20:51 2014
Timers Off: Sun Dec  7 20:20:52 2014

Wall Time:        1.00 seconds

JK: (A|mn)  :       0.03u       0.00s       0.00w      2 calls
JK: (A|Q)^-1/2:       0.18u       0.00s       0.00w      2 calls
JK: (Q|mn)  :       0.00u       0.00s       0.00w      2 calls
Form H      :       0.00u       0.02s       0.00w      2 calls
Form S/X    :       0.00u       0.00s       0.00w      2 calls
Guess       :       0.00u       0.00s       0.00w      2 calls
Form G      :       0.05u       0.00s       0.00w     62 calls
JK: D       :       0.00u       0.00s       0.00w     65 calls
JK: USO2AO  :       0.00u       0.00s       0.00w     42 calls
JK: JK      :       0.02u       0.00s       0.00w     65 calls
JK: J       :       0.02u       0.00s       0.00w     42 calls
JK: J1      :       0.00u       0.00s       0.00w     42 calls
JK: J2      :       0.02u       0.00s       0.00w     42 calls
JK: K       :       0.00u       0.00s       0.00w     42 calls
JK: K1      :       0.00u       0.00s       0.00w     42 calls
JK: K2      :       0.00u       0.00s       0.00w     42 calls
JK: AO2USO  :       0.00u       0.00s       0.00w     42 calls
Form F      :       0.00u       0.00s       0.00w     62 calls
DIIS        :       0.03u       0.02s       0.00w     62 calls
DIISManager::add_entry:       0.02u       0.02s       0.00w     62 calls
Form C      :       0.00u       0.00s       0.00w     62 calls
Form D      :       0.00u       0.00s       0.00w     62 calls
DIISManager::extrapolate:       0.02u       0.00s       0.00w     60 calls
DIISManager::extrapolate: bMatrix setup:       0.02u       0.00s       0.00w     60 calls
DIISManager::extrapolate: bMatrix pseudoinverse:       0.00u       0.00s       0.00w     60 calls
DIISManager::extrapolate: form new data:       0.00u       0.00s       0.00w     60 calls
presort     :       0.00u       0.02s       0.00w      1 call
RHF:1sthalf :       0.00u       0.00s       0.00w      1 call
RHF:midsort :       0.00u       0.00s       0.00w      1 call
RHF:2ndhalf :       0.00u       0.00s       0.00w      1 call

***********************************************************

Host: Kevins-MacBook-Pro.local

Timers On : Sun Dec  7 20:22:08 2014
Timers Off: Sun Dec  7 20:22:10 2014

Wall Time:        2.00 seconds

JK: (A|mn)  :       0.03u       0.00s       0.00w      2 calls
JK: (A|Q)^-1/2:       0.20u       0.02s       0.00w      2 calls
JK: (Q|mn)  :       0.00u       0.00s       0.00w      2 calls
Form H      :       0.00u       0.00s       0.00w      2 calls
Form S/X    :       0.00u       0.00s       0.00w      2 calls
Guess       :       0.00u       0.00s       0.00w      2 calls
Form G      :       0.03u       0.02s       0.00w     62 calls
JK: D       :       0.00u       0.00s       0.00w     62 calls
JK: USO2AO  :       0.00u       0.00s       0.00w     42 calls
JK: JK      :       0.03u       0.02s       0.00w     62 calls
JK: J       :       0.00u       0.00s       0.00w     42 calls
JK: J1      :       0.00u       0.00s       0.00w     42 calls
JK: J2      :       0.00u       0.00s       0.00w     42 calls
JK: K       :       0.02u       0.00s       0.00w     42 calls
JK: K1      :       0.02u       0.00s       0.00w     42 calls
JK: K2      :       0.00u       0.00s       0.00w     42 calls
JK: AO2USO  :       0.00u       0.00s       0.00w     42 calls
Form F      :       0.00u       0.00s       0.00w     62 calls
DIIS        :       0.02u       0.00s       0.00w     62 calls
DIISManager::add_entry:       0.00u       0.00s       0.00w     62 calls
Form C      :       0.00u       0.00s       0.00w     62 calls
Form D      :       0.00u       0.00s       0.00w     62 calls
DIISManager::extrapolate:       0.02u       0.00s       0.00w     60 calls
DIISManager::extrapolate: bMatrix setup:       0.02u       0.00s       0.00w     60 calls
DIISManager::extrapolate: bMatrix pseudoinverse:       0.00u       0.00s       0.00w     60 calls
DIISManager::extrapolate: form new data:       0.00u       0.00s       0.00w     60 calls
presort     :       0.00u       0.00s       0.00w      1 call
RHF:1sthalf :       0.02u       0.00s       0.00w      1 call
RHF:midsort :       0.00u       0.00s       0.00w      1 call
RHF:2ndhalf :       0.00u       0.00s       0.00w      1 call

***********************************************************

Host: Kevins-MacBook-Pro.local

Timers On : Wed Dec 10 21:47:02 2014
Timers Off: Wed Dec 10 21:47:03 2014

Wall Time:        1.00 seconds

JK: (A|mn)  :       0.02u       0.00s       0.00w      2 calls
JK: (A|Q)^-1/2:       0.23u       0.02s       1.00w      2 calls
JK: (Q|mn)  :       0.00u       0.00s       0.00w      2 calls
Form H      :       0.00u       0.00s       0.00w      2 calls
Form S/X    :       0.00u       0.00s       0.00w      2 calls
Guess       :       0.00u       0.00s       0.00w      2 calls
Form G      :       0.05u       0.02s       0.00w     62 calls
JK: D       :       0.00u       0.00s       0.00w     62 calls
JK: USO2AO  :       0.00u       0.00s       0.00w     42 calls
JK: JK      :       0.03u       0.02s       0.00w     62 calls
JK: J       :       0.00u       0.00s       0.00w     42 calls
JK: J1      :       0.00u       0.00s       0.00w     42 calls
JK: J2      :       0.00u       0.00s       0.00w     42 calls
JK: K       :       0.03u       0.00s       0.00w     42 calls
JK: K1      :       0.03u       0.00s       0.00w     42 calls
JK: K2      :       0.00u       0.00s       0.00w     42 calls
JK: AO2USO  :       0.00u       0.00s       0.00w     42 calls
Form F      :       0.00u       0.00s       0.00w     62 calls
DIIS        :       0.02u       0.00s       0.00w     62 calls
DIISManager::add_entry:       0.00u       0.00s       0.00w     62 calls
Form C      :       0.00u       0.00s       0.00w     62 calls
Form D      :       0.00u       0.00s       0.00w     62 calls
DIISManager::extrapolate:       0.02u       0.00s       0.00w     60 calls
DIISManager::extrapolate: bMatrix setup:       0.00u       0.00s       0.00w     60 calls
DIISManager::extrapolate: bMatrix pseudoinverse:       0.02u       0.00s       0.00w     60 calls
DIISManager::extrapolate: form new data:       0.00u       0.00s       0.00w     60 calls
presort     :       0.00u       0.00s       0.00w      1 call
RHF:1sthalf :       0.00u       0.00s       0.00w      1 call
RHF:midsort :       0.00u       0.00s       0.00w      1 call
RHF:2ndhalf :       0.00u       0.00s       0.00w      1 call

***********************************************************

Host: Kevins-MacBook-Pro.local

Timers On : Wed Dec 10 21:47:30 2014
Timers Off: Wed Dec 10 21:47:30 2014

Wall Time:        0.00 seconds

JK: (A|mn)  :       0.02u       0.00s       0.00w      1 call
JK: (A|Q)^-1/2:       0.10u       0.00s       0.00w      1 call
JK: (Q|mn)  :       0.00u       0.00s       0.00w      1 call
Form H      :       0.00u       0.00s       0.00w      1 call
Form S/X    :       0.00u       0.00s       0.00w      1 call
Guess       :       0.00u       0.00s       0.00w      1 call
Form G      :       0.05u       0.00s       0.00w     31 calls
JK: D       :       0.00u       0.00s       0.00w     34 calls
JK: USO2AO  :       0.00u       0.00s       0.00w     21 calls
JK: JK      :       0.03u       0.00s       0.00w     34 calls
JK: J       :       0.00u       0.00s       0.00w     21 calls
JK: J1      :       0.00u       0.00s       0.00w     21 calls
JK: J2      :       0.00u       0.00s       0.00w     21 calls
JK: K       :       0.03u       0.00s       0.00w     21 calls
JK: K1      :       0.02u       0.00s       0.00w     21 calls
JK: K2      :       0.02u       0.00s       0.00w     21 calls
JK: AO2USO  :       0.00u       0.00s       0.00w     21 calls
Form F      :       0.00u       0.00s       0.00w     31 calls
DIIS        :       0.00u       0.00s       0.00w     31 calls
DIISManager::add_entry:       0.00u       0.00s       0.00w     31 calls
Form C      :       0.00u       0.00s       0.00w     31 calls
Form D      :       0.00u       0.00s       0.00w     31 calls
DIISManager::extrapolate:       0.00u       0.00s       0.00w     30 calls
DIISManager::extrapolate: bMatrix setup:       0.00u       0.00s       0.00w     30 calls
DIISManager::extrapolate: bMatrix pseudoinverse:       0.00u       0.00s       0.00w     30 calls
DIISManager::extrapolate: form new data:       0.00u       0.00s       0.00w     30 calls

***********************************************************

Host: Kevins-MacBook-Pro.local

Timers On : Tue Jan  6 09:21:10 2015
Timers Off: Tue Jan  6 09:21:11 2015

Wall Time:        1.00 seconds

JK: (A|mn)  :       0.02u       0.00s       0.00w      1 call
JK: (A|Q)^-1/2:       0.10u       0.00s       0.00w      1 call
JK: (Q|mn)  :       0.00u       0.00s       0.00w      1 call
Form H      :       0.00u       0.00s       0.00w      1 call
Form S/X    :       0.00u       0.00s       0.00w      1 call
Guess       :       0.00u       0.00s       0.00w      1 call
Form G      :       0.02u       0.02s       0.00w     31 calls
JK: D       :       0.00u       0.00s       0.00w     34 calls
JK: USO2AO  :       0.00u       0.00s       0.00w     21 calls
JK: JK      :       0.02u       0.02s       0.00w     34 calls
JK: J       :       0.00u       0.00s       0.00w     21 calls
JK: J1      :       0.00u       0.00s       0.00w     21 calls
JK: J2      :       0.00u       0.00s       0.00w     21 calls
JK: K       :       0.02u       0.00s       0.00w     21 calls
JK: K1      :       0.02u       0.00s       0.00w     21 calls
JK: K2      :       0.00u       0.00s       0.00w     21 calls
JK: AO2USO  :       0.00u       0.00s       0.00w     21 calls
Form F      :       0.00u       0.00s       0.00w     31 calls
DIIS        :       0.02u       0.02s       0.00w     31 calls
DIISManager::add_entry:       0.00u       0.02s       0.00w     31 calls
Form C      :       0.00u       0.00s       0.00w     31 calls
Form D      :       0.00u       0.00s       0.00w     31 calls
DIISManager::extrapolate:       0.02u       0.00s       0.00w     30 calls
DIISManager::extrapolate: bMatrix setup:       0.00u       0.00s       0.00w     30 calls
DIISManager::extrapolate: bMatrix pseudoinverse:       0.00u       0.00s       0.00w     30 calls
DIISManager::extrapolate: form new data:       0.02u       0.00s       0.00w     30 calls

***********************************************************

Host: Kevins-MacBook-Pro.local

Timers On : Tue Jan  6 13:51:00 2015
Timers Off: Tue Jan  6 13:51:01 2015

Wall Time:        1.00 seconds

JK: (A|mn)  :       0.02u       0.00s       0.00w      1 call
JK: (A|Q)^-1/2:       0.08u       0.00s       0.00w      1 call
JK: (Q|mn)  :       0.00u       0.00s       0.00w      1 call
Form H      :       0.00u       0.00s       0.00w      1 call
Form S/X    :       0.00u       0.00s       0.00w      1 call
Guess       :       0.00u       0.00s       0.00w      1 call
Form G      :       0.05u       0.00s       0.00w     31 calls
JK: D       :       0.00u       0.00s       0.00w     34 calls
JK: USO2AO  :       0.00u       0.00s       0.00w     21 calls
JK: JK      :       0.02u       0.00s       0.00w     34 calls
JK: J       :       0.00u       0.00s       0.00w     21 calls
JK: J1      :       0.00u       0.00s       0.00w     21 calls
JK: J2      :       0.00u       0.00s       0.00w     21 calls
JK: K       :       0.02u       0.00s       0.00w     21 calls
JK: K1      :       0.02u       0.00s       0.00w     21 calls
JK: K2      :       0.00u       0.00s       0.00w     21 calls
JK: AO2USO  :       0.00u       0.00s       0.00w     21 calls
Form F      :       0.00u       0.00s       0.00w     31 calls
DIIS        :       0.00u       0.00s       0.00w     31 calls
DIISManager::add_entry:       0.00u       0.00s       0.00w     31 calls
Form C      :       0.00u       0.00s       0.00w     31 calls
Form D      :       0.00u       0.00s       0.00w     31 calls
DIISManager::extrapolate:       0.00u       0.00s       0.00w     30 calls
DIISManager::extrapolate: bMatrix setup:       0.00u       0.00s       0.00w     30 calls
DIISManager::extrapolate: bMatrix pseudoinverse:       0.00u       0.00s       0.00w     30 calls
DIISManager::extrapolate: form new data:       0.00u       0.00s       0.00w     30 calls

***********************************************************

Host: Kevins-MacBook-Pro.local

Timers On : Wed Jan  7 14:37:18 2015
Timers Off: Wed Jan  7 14:37:19 2015

Wall Time:        1.00 seconds

JK: (A|mn)  :       0.00u       0.00s       0.00w      1 call
JK: (A|Q)^-1/2:       0.03u       0.00s       0.00w      1 call
JK: (Q|mn)  :       0.00u       0.00s       0.00w      1 call
Form H      :       0.00u       0.00s       0.00w      1 call
Form S/X    :       0.00u       0.00s       0.00w      1 call
Guess       :       0.00u       0.00s       0.00w      1 call
Form G      :       0.02u       0.00s       0.00w     32 calls
JK: D       :       0.00u       0.00s       0.00w     35 calls
JK: USO2AO  :       0.00u       0.00s       0.00w     21 calls
JK: JK      :       0.02u       0.00s       0.00w     35 calls
JK: J       :       0.02u       0.00s       0.00w     21 calls
JK: J1      :       0.00u       0.00s       0.00w     21 calls
JK: J2      :       0.00u       0.00s       0.00w     21 calls
JK: K       :       0.00u       0.00s       0.00w     21 calls
JK: K1      :       0.00u       0.00s       0.00w     21 calls
JK: K2      :       0.00u       0.00s       0.00w     21 calls
JK: AO2USO  :       0.00u       0.00s       0.00w     21 calls
Form F      :       0.00u       0.00s       0.00w     32 calls
DIIS        :       0.00u       0.02s       0.00w     32 calls
DIISManager::add_entry:       0.00u       0.00s       0.00w     32 calls
Form C      :       0.00u       0.00s       0.00w     32 calls
Form D      :       0.00u       0.00s       0.00w     32 calls
DIISManager::extrapolate:       0.00u       0.02s       0.00w     31 calls
DIISManager::extrapolate: bMatrix setup:       0.00u       0.00s       0.00w     31 calls
DIISManager::extrapolate: bMatrix pseudoinverse:       0.00u       0.00s       0.00w     31 calls
DIISManager::extrapolate: form new data:       0.00u       0.02s       0.00w     31 calls

***********************************************************
