    -----------------------------------------------------------------------
          PSI4: An Open-Source Ab Initio Electronic Structure Package
                              PSI 4.0 Driver

               Git: Rev {master} 556e8139d3cfa1f96ccffe2cdf22cc56a185d2b2

    J. M. Turney, A. C. Simmonett, R. M. Parrish, E. G. Hohenstein,
    F. A. Evangelista, J. T. Fermann, B. J. Mintz, L. A. Burns, J. J. Wilke,
    M. L. Abrams, N. J. Russ, M. L. Leininger, C. L. Janssen, E. T. Seidl,
    W. D. Allen, H. F. Schaefer, R. A. King, E. F. Valeev, C. D. Sherrill,
    and T. D. Crawford, WIREs Comput. Mol. Sci. 2, 556-565 (2012)
    (doi: 10.1002/wcms.93)

                         Additional Contributions by
    A. E. DePrince, M. Saitow, U. Bozkaya, A. Yu. Sokolov
    -----------------------------------------------------------------------

    Process ID:  11954
    PSI4DATADIR: /Users/kevinhannon/Programs/psi4cmake/psi4/lib
    Memory level set to 256.000 MB

  ==> Input File <==

--------------------------------------------------------------------------

# PYTHONPATH must include directory above plugin directory.
#     Define either externally or here, then import plugin.
sys.path.insert(0, '/Users/kevinhannon/Programs/Quantum_Programs/Quantum-Programs/GS/')
import scf

molecule {
0 1
H
H 1 2.90000
symmetry c1
units angstrom
}


set {
  basis cc-pvdz
  reference rhf
  scf_type  pk
}

set scf {
  DO_FTHF true
  MAX_ITER 130
  MAX_TEMP 100
  TEMP_INCREMENT 0
  bisect  true
  bisect_iter  40
}
energy('rhf')

energy('scf')


--------------------------------------------------------------------------

*** tstart() called on Kevins-MacBook-Pro.local
*** at Fri Apr 10 18:02:17 2015

/Users/kevinhannon/Programs/Quantum_Programs/Quantum-Programs/GS/scf/scf.so loaded.

*** tstart() called on Kevins-MacBook-Pro.local
*** at Fri Apr 10 18:02:17 2015


         ---------------------------------------------------------
                                   SCF
            by Justin Turney, Rob Parrish, and Andy Simmonett
                              RHF Reference
                        1 Threads,    256 MiB Core
         ---------------------------------------------------------

  ==> Geometry <==

    Molecular point group: c1
    Full point group: D_inf_h

    Geometry (in Angstrom), charge = 0, multiplicity = 1:

       Center              X                  Y                   Z       
    ------------   -----------------  -----------------  -----------------
           H          0.000000000000     0.000000000000    -1.450000000000
           H          0.000000000000     0.000000000000     1.450000000000

  Running in c1 symmetry.

  Rotational constants: A = ************  B =      3.97782  C =      3.97782 [cm^-1]
  Rotational constants: A = ************  B = 119252.10529  C = 119252.10529 [MHz]
  Nuclear repulsion =    0.182474899513793

  Charge       = 0
  Multiplicity = 1
  Electrons    = 2
  Nalpha       = 1
  Nbeta        = 1

  ==> Algorithm <==

  SCF Algorithm Type is PK.
  DIIS enabled.
  MOM disabled.
  Fractional occupation disabled.
  Guess Type is CORE.
  Energy threshold   = 1.00e-06
  Density threshold  = 1.00e-06
  Integral threshold = 0.00e+00

  ==> Primary Basis <==

  Basis Set: CC-PVDZ
    Number of shells: 6
    Number of basis function: 10
    Number of Cartesian functions: 10
    Spherical Harmonics?: true
    Max angular momentum: 1

  ==> Pre-Iterations <==

   -------------------------------------------------------
    Irrep   Nso     Nmo     Nalpha   Nbeta   Ndocc  Nsocc
   -------------------------------------------------------
     A         10      10       0       0       0       0
   -------------------------------------------------------
    Total      10      10       1       1       1       0
   -------------------------------------------------------

  Starting with a DF guess...

 OEINTS: Overlap, kinetic, potential, dipole, and quadrupole integrals
         stored in file 35.

  ==> Integral Setup <==

  ==> DFJK: Density-Fitted J/K Matrices <==

    J tasked:                  Yes
    K tasked:                  Yes
    wK tasked:                  No
    OpenMP threads:              1
    Integrals threads:           1
    Memory (MB):               183
    Algorithm:                Core
    Integral Cache:           NONE
    Schwarz Cutoff:          1E-12
    Fitting Condition:       1E-12

   => Auxiliary Basis Set <=

  Basis Set: 
    Number of shells: 18
    Number of basis function: 46
    Number of Cartesian functions: 50
    Spherical Harmonics?: true
    Max angular momentum: 2

  Minimum eigenvalue in the overlap matrix is 2.6562398942E-01.
  Using Symmetric Orthogonalization.
  SCF Guess: Core (One-Electron) Hamiltonian.

  ==> Iterations <==

                           Total Energy        Delta E     RMS |[F,P]|

   @DF-RHF iter   1:    -0.81342647231789   -8.13426e-01   1.24473e-02 
   @DF-RHF iter   2:    -0.83255892292153   -1.91325e-02   2.09687e-03 DIIS
   @DF-RHF iter   3:    -0.83312046234033   -5.61539e-04   1.87246e-05 DIIS
   @DF-RHF iter   4:    -0.83312049333123   -3.09909e-08   6.95697e-07 DIIS

  DF guess converged.

  ==> Integral Setup <==

 MINTS: Wrapper to libmints.
   by Justin Turney

   Calculation information:
      Number of atoms:                   2
      Number of AO shells:               6
      Number of SO shells:               6
      Number of primitives:             10
      Number of atomic orbitals:        10
      Number of basis functions:        10

      Number of irreps:                  1
      Integral cutoff                 0.00e+00
      Number of functions per irrep: [  10 ]

 OEINTS: Overlap, kinetic, potential, dipole, and quadrupole integrals
         stored in file 35.

      Computing two-electron integrals...done
      Computed 512 non-zero two-electron integrals.
        Stored in file 33.

	Batch   1 pq = [       0,      55] index = [             0,1540]
  ==> DiskJK: Disk-Based J/K Matrices <==

    J tasked:                  Yes
    K tasked:                  Yes
    wK tasked:                  No
    Memory (MB):               183
    Schwarz Cutoff:          1E-12

   @RHF iter   5:    -0.83308636470992    3.41286e-05   8.83810e-06 DIIS
   @RHF iter   6:    -0.83308637378660   -9.07668e-09   1.46892e-06 DIIS
   @RHF iter   7:    -0.83308637405387   -2.67264e-10   2.19876e-08 DIIS

  ==> Post-Iterations <==

    Orbital Energies (a.u.)
    -----------------------

    Doubly Occupied:                                                      

       1A     -0.327871  

    Virtual:                                                              

       2A     -0.110594     3A      0.598521     4A      0.677956  
       5A      1.461949     6A      1.461949     7A      1.464249  
       8A      1.464855     9A      1.464855    10A      1.480039  

    Final Occupation by Irrep:
              A 
    DOCC [     1 ]

  Energy converged.

  @RHF Final Energy:    -0.83308637405387

   => Energetics <=

    Nuclear Repulsion Energy =              0.1824748995137931
    One-Electron Energy =                  -1.3753808095844666
    Two-Electron Energy =                   0.3598195360168064
    DFT Exchange-Correlation Energy =       0.0000000000000000
    Empirical Dispersion Energy =           0.0000000000000000
    PCM Polarization Energy =               0.0000000000000000
    EFP Energy =                            0.0000000000000000
    Total Energy =                         -0.8330863740538672

    Alert: EFP and PCM quantities not currently incorporated into SCF psivars.

Properties will be evaluated at   0.000000,   0.000000,   0.000000 Bohr
  ==> Properties <==


Properties computed using the SCF density matrix

  Nuclear Dipole Moment: (a.u.)
     X:     0.0000      Y:     0.0000      Z:     0.0000

  Electronic Dipole Moment: (a.u.)
     X:     0.0000      Y:    -0.0000      Z:     0.0000

  Dipole Moment: (a.u.)
     X:     0.0000      Y:    -0.0000      Z:     0.0000     Total:     0.0000

  Dipole Moment: (Debye)
     X:     0.0000      Y:    -0.0000      Z:     0.0000     Total:     0.0000


  Saving occupied orbitals to File 180.

*** tstop() called on Kevins-MacBook-Pro.local at Fri Apr 10 18:02:17 2015
Module time:
	user time   =       0.19 seconds =       0.00 minutes
	system time =       0.01 seconds =       0.00 minutes
	total time  =          0 seconds =       0.00 minutes
Total time:
	user time   =       0.20 seconds =       0.00 minutes
	system time =       0.01 seconds =       0.00 minutes
	total time  =          0 seconds =       0.00 minutes

*** tstart() called on Kevins-MacBook-Pro.local
*** at Fri Apr 10 18:02:17 2015


         ---------------------------------------------------------
                                   SCF
            by Justin Turney, Rob Parrish, and Andy Simmonett
                              RHF Reference
                        1 Threads,    256 MiB Core
         ---------------------------------------------------------

  ==> Geometry <==

    Molecular point group: c1
    Full point group: D_inf_h

    Geometry (in Angstrom), charge = 0, multiplicity = 1:

       Center              X                  Y                   Z       
    ------------   -----------------  -----------------  -----------------
           H          0.000000000000     0.000000000000    -1.450000000000
           H          0.000000000000     0.000000000000     1.450000000000

  Running in c1 symmetry.

  Rotational constants: A = ************  B =      3.97782  C =      3.97782 [cm^-1]
  Rotational constants: A = ************  B = 119252.10529  C = 119252.10529 [MHz]
  Nuclear repulsion =    0.182474899513793

  Charge       = 0
  Multiplicity = 1
  Electrons    = 2
  Nalpha       = 1
  Nbeta        = 1

  ==> Algorithm <==

  SCF Algorithm Type is PK.
  DIIS enabled.
  MOM disabled.
  Fractional occupation disabled.
  Guess Type is CORE.
  Energy threshold   = 1.00e-08
  Density threshold  = 1.00e-08
  Integral threshold = 0.00e+00

  ==> Primary Basis <==

  Basis Set: CC-PVDZ
    Number of shells: 6
    Number of basis function: 10
    Number of Cartesian functions: 10
    Spherical Harmonics?: true
    Max angular momentum: 1

  ==> Pre-Iterations <==

   -------------------------------------------------------
    Irrep   Nso     Nmo     Nalpha   Nbeta   Ndocc  Nsocc
   -------------------------------------------------------
     A         10      10       0       0       0       0
   -------------------------------------------------------
    Total      10      10       1       1       1       0
   -------------------------------------------------------

  Starting with a DF guess...

 OEINTS: Overlap, kinetic, potential, dipole, and quadrupole integrals
         stored in file 35.

  ==> Integral Setup <==

  ==> DFJK: Density-Fitted J/K Matrices <==

    J tasked:                  Yes
    K tasked:                  Yes
    wK tasked:                  No
    OpenMP threads:              1
    Integrals threads:           1
    Memory (MB):               183
    Algorithm:                Core
    Integral Cache:           NONE
    Schwarz Cutoff:          1E-12
    Fitting Condition:       1E-12

   => Auxiliary Basis Set <=

  Basis Set: 
    Number of shells: 18
    Number of basis function: 46
    Number of Cartesian functions: 50
    Spherical Harmonics?: true
    Max angular momentum: 2

  Minimum eigenvalue in the overlap matrix is 2.6562398942E-01.
  Using Symmetric Orthogonalization.
  SCF Guess: Core (One-Electron) Hamiltonian.

  ==> Iterations <==

                           Total Energy        Delta E     RMS |[F,P]|

   @DF-RHF iter   1:    -0.81342647231789   -8.13426e-01   1.24473e-02 
   @DF-RHF iter   2:    -0.83255892292154   -1.91325e-02   2.09687e-03 DIIS
   @DF-RHF iter   3:    -0.83312046234033   -5.61539e-04   1.87246e-05 DIIS
   @DF-RHF iter   4:    -0.83312049333123   -3.09909e-08   6.95697e-07 DIIS
   @DF-RHF iter   5:    -0.83312049337174   -4.05032e-11   1.75089e-10 DIIS

  DF guess converged.

  ==> Integral Setup <==

 MINTS: Wrapper to libmints.
   by Justin Turney

   Calculation information:
      Number of atoms:                   2
      Number of AO shells:               6
      Number of SO shells:               6
      Number of primitives:             10
      Number of atomic orbitals:        10
      Number of basis functions:        10

      Number of irreps:                  1
      Integral cutoff                 0.00e+00
      Number of functions per irrep: [  10 ]

 OEINTS: Overlap, kinetic, potential, dipole, and quadrupole integrals
         stored in file 35.

      Computing two-electron integrals...done
      Computed 512 non-zero two-electron integrals.
        Stored in file 33.

	Batch   1 pq = [       0,      55] index = [             0,1540]
  ==> DiskJK: Disk-Based J/K Matrices <==

    J tasked:                  Yes
    K tasked:                  Yes
    wK tasked:                  No
    Memory (MB):               183
    Schwarz Cutoff:          1E-12

   @RHF iter   6:    -0.83308636471029    3.41287e-05   8.83792e-06 DIIS
   @RHF iter   7:    -0.83308637378661   -9.07633e-09   1.46889e-06 DIIS
   @RHF iter   8:    -0.83308637405387   -2.67253e-10   2.19871e-08 DIIS
   @RHF iter   9:    -0.83308637405391   -4.01901e-14   4.83710e-13 DIIS

  ==> Post-Iterations <==

    Orbital Energies (a.u.)
    -----------------------

    Doubly Occupied:                                                      

       1A     -0.327871  

    Virtual:                                                              

       2A     -0.110594     3A      0.598521     4A      0.677956  
       5A      1.461949     6A      1.461949     7A      1.464249  
       8A      1.464855     9A      1.464855    10A      1.480039  

    Final Occupation by Irrep:
              A 
    DOCC [     1 ]

  Energy converged.

  @RHF Final Energy:    -0.83308637405391

   => Energetics <=

    Nuclear Repulsion Energy =              0.1824748995137931
    One-Electron Energy =                  -1.3753808343961547
    Two-Electron Energy =                   0.3598195608284549
    DFT Exchange-Correlation Energy =       0.0000000000000000
    Empirical Dispersion Energy =           0.0000000000000000
    PCM Polarization Energy =               0.0000000000000000
    EFP Energy =                            0.0000000000000000
    Total Energy =                         -0.8330863740539067

    Alert: EFP and PCM quantities not currently incorporated into SCF psivars.

Properties will be evaluated at   0.000000,   0.000000,   0.000000 Bohr
  ==> Properties <==


Properties computed using the SCF density matrix

  Nuclear Dipole Moment: (a.u.)
     X:     0.0000      Y:     0.0000      Z:     0.0000

  Electronic Dipole Moment: (a.u.)
     X:    -0.0000      Y:     0.0000      Z:     0.0000

  Dipole Moment: (a.u.)
     X:    -0.0000      Y:     0.0000      Z:     0.0000     Total:     0.0000

  Dipole Moment: (Debye)
     X:    -0.0000      Y:     0.0000      Z:     0.0000     Total:     0.0000


  Saving occupied orbitals to File 180.

*** tstop() called on Kevins-MacBook-Pro.local at Fri Apr 10 18:02:17 2015
Module time:
	user time   =       0.19 seconds =       0.00 minutes
	system time =       0.01 seconds =       0.00 minutes
	total time  =          0 seconds =       0.00 minutes
Total time:
	user time   =       0.40 seconds =       0.01 minutes
	system time =       0.02 seconds =       0.00 minutes
	total time  =          0 seconds =       0.00 minutes
Reading options from the SCF block
Calling plugin scf.so.
    Molecular point group: c1
    Full point group: D_inf_h

    Geometry (in Angstrom), charge = 0, multiplicity = 1:

       Center              X                  Y                   Z       
    ------------   -----------------  -----------------  -----------------
           H          0.000000000000     0.000000000000    -1.450000000000
           H          0.000000000000     0.000000000000     1.450000000000


    Nuclear repulsion energy:       0.18247490

  ## Overlap (Symmetry 0) ##
  Irrep: 1 Size: 10 x 10

                 1                   2                   3                   4                   5

    1     1.00000000000000     0.68486025149275    -0.00000000000000     0.00000000000000     0.00000000000000
    2     0.68486025149275     1.00000000000000     0.00000000000000     0.00000000000000     0.00000000000000
    3    -0.00000000000000     0.00000000000000     1.00000000000000     0.00000000000000     0.00000000000000
    4     0.00000000000000     0.00000000000000     0.00000000000000     1.00000000000000     0.00000000000000
    5     0.00000000000000     0.00000000000000     0.00000000000000     0.00000000000000     1.00000000000000
    6     0.00083946234746     0.03668859299812     0.00069582697859     0.00000000000000     0.00000000000000
    7     0.03668859299812     0.16009434481240     0.03424224525498     0.00000000000000     0.00000000000000
    8    -0.00069582697859    -0.03424224525498    -0.00037812094863     0.00000000000000     0.00000000000000
    9     0.00000000000000     0.00000000000000     0.00000000000000     0.00001814945081     0.00000000000000
   10     0.00000000000000     0.00000000000000     0.00000000000000     0.00000000000000     0.00001814945081

                 6                   7                   8                   9                  10

    1     0.00083946234746     0.03668859299812    -0.00069582697859     0.00000000000000     0.00000000000000
    2     0.03668859299812     0.16009434481240    -0.03424224525498     0.00000000000000     0.00000000000000
    3     0.00069582697859     0.03424224525498    -0.00037812094863     0.00000000000000     0.00000000000000
    4     0.00000000000000     0.00000000000000     0.00000000000000     0.00001814945081     0.00000000000000
    5     0.00000000000000     0.00000000000000     0.00000000000000     0.00000000000000     0.00001814945081
    6     1.00000000000000     0.68486025149275     0.00000000000000     0.00000000000000     0.00000000000000
    7     0.68486025149275     1.00000000000000    -0.00000000000000     0.00000000000000     0.00000000000000
    8     0.00000000000000    -0.00000000000000     1.00000000000000     0.00000000000000     0.00000000000000
    9     0.00000000000000     0.00000000000000     0.00000000000000     1.00000000000000     0.00000000000000
   10     0.00000000000000     0.00000000000000     0.00000000000000     0.00000000000000     1.00000000000000



  ## Kinetic (Symmetry 0) ##
  Irrep: 1 Size: 10 x 10

                 1                   2                   3                   4                   5

    1     0.96945722711242     0.20123413106538    -0.00000000000000     0.00000000000000     0.00000000000000
    2     0.20123413106538     0.18300000000000     0.00000000000000     0.00000000000000     0.00000000000000
    3    -0.00000000000000     0.00000000000000     1.81750000000000     0.00000000000000     0.00000000000000
    4     0.00000000000000     0.00000000000000     0.00000000000000     1.81750000000000     0.00000000000000
    5     0.00000000000000     0.00000000000000     0.00000000000000     0.00000000000000     1.81750000000000
    6    -0.00195415309931    -0.01012065861433    -0.00222303187568     0.00000000000000     0.00000000000000
    7    -0.01012065861433    -0.00648430474740    -0.00456081012606     0.00000000000000     0.00000000000000
    8     0.00222303187568     0.00456081012606     0.00202565795969     0.00000000000000     0.00000000000000
    9     0.00000000000000     0.00000000000000     0.00000000000000    -0.00011105766335     0.00000000000000
   10     0.00000000000000     0.00000000000000     0.00000000000000     0.00000000000000    -0.00011105766335

                 6                   7                   8                   9                  10

    1    -0.00195415309931    -0.01012065861433     0.00222303187568     0.00000000000000     0.00000000000000
    2    -0.01012065861433    -0.00648430474740     0.00456081012606     0.00000000000000     0.00000000000000
    3    -0.00222303187568    -0.00456081012606     0.00202565795969     0.00000000000000     0.00000000000000
    4     0.00000000000000     0.00000000000000     0.00000000000000    -0.00011105766335     0.00000000000000
    5     0.00000000000000     0.00000000000000     0.00000000000000     0.00000000000000    -0.00011105766335
    6     0.96945722711242     0.20123413106538     0.00000000000000     0.00000000000000     0.00000000000000
    7     0.20123413106538     0.18300000000000    -0.00000000000000     0.00000000000000     0.00000000000000
    8     0.00000000000000    -0.00000000000000     1.81750000000000     0.00000000000000     0.00000000000000
    9     0.00000000000000     0.00000000000000     0.00000000000000     1.81750000000000     0.00000000000000
   10     0.00000000000000     0.00000000000000     0.00000000000000     0.00000000000000     1.81750000000000



  ## Potential (Symmetry 0) ##
  Irrep: 1 Size: 10 x 10

                 1                   2                   3                   4                   5

    1    -1.56033668420304    -0.77467701065370    -0.02094802690932     0.00000000000000     0.00000000000000
    2    -0.77467701065370    -0.73982954720324    -0.01965033328605     0.00000000000000     0.00000000000000
    3    -0.02094802690932    -0.01965033328605    -1.09373449687015     0.00000000000000     0.00000000000000
    4     0.00000000000000     0.00000000000000     0.00000000000000    -1.08746639202759     0.00000000000000
    5     0.00000000000000     0.00000000000000     0.00000000000000     0.00000000000000    -1.08746639202759
    6    -0.00061488322464    -0.03531660799795    -0.00051866475766     0.00000000000000     0.00000000000000
    7    -0.03531660799795    -0.11035571998724    -0.02995160096245     0.00000000000000     0.00000000000000
    8     0.00051866475766     0.02995160096245     0.00027477702156     0.00000000000000     0.00000000000000
    9     0.00000000000000     0.00000000000000     0.00000000000000    -0.00001264054613     0.00000000000000
   10     0.00000000000000     0.00000000000000     0.00000000000000     0.00000000000000    -0.00001264054613

                 6                   7                   8                   9                  10

    1    -0.00061488322464    -0.03531660799795     0.00051866475766     0.00000000000000     0.00000000000000
    2    -0.03531660799795    -0.11035571998724     0.02995160096245     0.00000000000000     0.00000000000000
    3    -0.00051866475766    -0.02995160096245     0.00027477702156     0.00000000000000     0.00000000000000
    4     0.00000000000000     0.00000000000000     0.00000000000000    -0.00001264054613     0.00000000000000
    5     0.00000000000000     0.00000000000000     0.00000000000000     0.00000000000000    -0.00001264054613
    6    -1.56033668420304    -0.77467701065370     0.02094802690932     0.00000000000000     0.00000000000000
    7    -0.77467701065370    -0.73982954720324     0.01965033328605     0.00000000000000     0.00000000000000
    8     0.02094802690932     0.01965033328605    -1.09373449687015     0.00000000000000     0.00000000000000
    9     0.00000000000000     0.00000000000000     0.00000000000000    -1.08746639202759     0.00000000000000
   10     0.00000000000000     0.00000000000000     0.00000000000000     0.00000000000000    -1.08746639202759



  ## One Electron Ints (Symmetry 0) ##
  Irrep: 1 Size: 10 x 10

                 1                   2                   3                   4                   5

    1    -0.59087945709062    -0.57344287958831    -0.02094802690932     0.00000000000000     0.00000000000000
    2    -0.57344287958831    -0.55682954720324    -0.01965033328605     0.00000000000000     0.00000000000000
    3    -0.02094802690932    -0.01965033328605     0.72376550312985     0.00000000000000     0.00000000000000
    4     0.00000000000000     0.00000000000000     0.00000000000000     0.73003360797241     0.00000000000000
    5     0.00000000000000     0.00000000000000     0.00000000000000     0.00000000000000     0.73003360797241
    6    -0.00256903632394    -0.04543726661228    -0.00274169663334     0.00000000000000     0.00000000000000
    7    -0.04543726661228    -0.11684002473464    -0.03451241108851     0.00000000000000     0.00000000000000
    8     0.00274169663334     0.03451241108851     0.00230043498124     0.00000000000000     0.00000000000000
    9     0.00000000000000     0.00000000000000     0.00000000000000    -0.00012369820948     0.00000000000000
   10     0.00000000000000     0.00000000000000     0.00000000000000     0.00000000000000    -0.00012369820948

                 6                   7                   8                   9                  10

    1    -0.00256903632394    -0.04543726661228     0.00274169663334     0.00000000000000     0.00000000000000
    2    -0.04543726661228    -0.11684002473464     0.03451241108851     0.00000000000000     0.00000000000000
    3    -0.00274169663334    -0.03451241108851     0.00230043498124     0.00000000000000     0.00000000000000
    4     0.00000000000000     0.00000000000000     0.00000000000000    -0.00012369820948     0.00000000000000
    5     0.00000000000000     0.00000000000000     0.00000000000000     0.00000000000000    -0.00012369820948
    6    -0.59087945709062    -0.57344287958831     0.02094802690932     0.00000000000000     0.00000000000000
    7    -0.57344287958831    -0.55682954720324     0.01965033328605     0.00000000000000     0.00000000000000
    8     0.02094802690932     0.01965033328605     0.72376550312985     0.00000000000000     0.00000000000000
    9     0.00000000000000     0.00000000000000     0.00000000000000     0.73003360797241     0.00000000000000
   10     0.00000000000000     0.00000000000000     0.00000000000000     0.00000000000000     0.73003360797241




	There are 0 unique integrals

  ## Fock (Symmetry 0) ##
  Irrep: 1 Size: 10 x 10

                 1                   2                   3                   4                   5

    1    -0.36020946151609    -0.34785915055188    -0.02017906315759    -0.00000000000000     0.00000000000000
    2    -0.34785915055188    -0.30076696664783    -0.00616970526271     0.00000000000000     0.00000000000000
    3    -0.02017906315759    -0.00616970526271     0.72632662589210     0.00000000000000     0.00000000000000
    4    -0.00000000000000     0.00000000000000     0.00000000000000     0.73003361045794     0.00000000000000
    5     0.00000000000000     0.00000000000000     0.00000000000000     0.00000000000000     0.73003361045794
    6    -0.00516371995815     0.01815191746460     0.02881933444956     0.00000000000000     0.00000000000000
    7     0.01815191746460    -0.06467196444827    -0.05602734789291    -0.00000000000000     0.00000000000000
    8    -0.02881933444956     0.05602734789291     0.00258249473398     0.00000000000000     0.00000000000000
    9     0.00000000000000    -0.00000000000000    -0.00000000000000    -0.00013694791859     0.00000000000000
   10     0.00000000000000     0.00000000000000     0.00000000000000     0.00000000000000    -0.00013694791859

                 6                   7                   8                   9                  10

    1    -0.00516371995815     0.01815191746460    -0.02881933444956     0.00000000000000     0.00000000000000
    2     0.01815191746460    -0.06467196444827     0.05602734789291    -0.00000000000000     0.00000000000000
    3     0.02881933444956    -0.05602734789291     0.00258249473398    -0.00000000000000     0.00000000000000
    4     0.00000000000000    -0.00000000000000     0.00000000000000    -0.00013694791859     0.00000000000000
    5     0.00000000000000     0.00000000000000     0.00000000000000     0.00000000000000    -0.00013694791859
    6    -0.36020946151609    -0.34785915055188     0.02017906315759     0.00000000000000     0.00000000000000
    7    -0.34785915055188    -0.30076696664783     0.00616970526271    -0.00000000000000     0.00000000000000
    8     0.02017906315759     0.00616970526271     0.72632662589210    -0.00000000000000     0.00000000000000
    9     0.00000000000000    -0.00000000000000    -0.00000000000000     0.73003361045794     0.00000000000000
   10     0.00000000000000     0.00000000000000     0.00000000000000     0.00000000000000     0.73003361045794



  ## C (Symmetry 0) ##
  Irrep: 1 Size: 10 x 10

                 1                   2                   3                   4                   5

    1     0.36009514517971     0.40603148005775     0.02296945184888    -0.03673483285910     0.01520086057905
    2     0.44487917620263     0.33491832105908    -0.00661185878487     0.10158279704415    -0.03532652054452
    3     0.50248283789181    -0.49638412108613    -0.04625575195756     0.01962714373519    -0.00634230394991
    4     0.45523697153863    -0.53596468849080     0.07416975501391    -0.00000640058208     0.00000045592722
    5     0.01943935832188    -0.04598172943894     0.70533598618088    -0.00000000000001     0.00000000000000
    6     0.02533848482889     0.00763422445437    -0.00083029829594     0.52462832498635    -0.82457547407547
    7    -0.06231116827042    -0.02534697664204     0.00179023174689    -0.97021652575093     0.19286265600202
    8     0.00722004371146     0.00480932568650    -0.00020570108252    -0.04737317086107    -0.70641470075528
    9    -0.00000413115051     0.00000486373238    -0.00000067307018     0.70531964269241    -0.05024143466824
   10    -0.04997371388452     0.05486686669219     0.70319507702770     0.00000000000000    -0.00000000000000

                 6                   7                   8                   9                  10

    1     0.91603978996214     0.87860388509833    -0.02560617921857    -0.03810254662658    -0.00399993239307
    2    -0.95568439188155    -0.85560972879881     0.01325443431396     0.10416711310294     0.00095367111346
    3     0.49830255879187    -0.49993750462268     0.04627557813345     0.01965780389407    -0.00591187809925
    4    -0.45523697153863     0.53596468849080     0.07416975501391     0.00000640058208    -0.00000045592722
    5     0.01943845132962    -0.04598073364301    -0.70534874890159    -0.00000000000004     0.00000000000000
    6    -0.02915027300698    -0.03868312670609     0.00108872690116     0.52478836214449    -0.82232877570288
    7     0.08699453402130     0.10156809571356    -0.00249835698092    -0.97060635306384     0.18739002448977
    8    -0.02049264379892    -0.01874742858720     0.00033713647332     0.05317963948544     0.70520645882853
    9     0.00000413115051    -0.00000486373237    -0.00000067307016    -0.70531964268997     0.05024143466774
   10     0.04997336107908    -0.05486603215809     0.70320787860423    -0.00000000000001     0.00000000000000




 In Bisection function HOMO = -0.696  LUMO =  0.736

 0.02008 = (-0.69613 + 0.73628)/2.0
 sum -  nocc_ = 2.00000000
 On Iteration in Bisection 0
 a: 2.00000  b:-0.50000

 -0.33802 = (-0.69613 + 0.02008)/2.0
 sum -  nocc_ = 1.00000000
 On Iteration in Bisection 1
 a: 1.00000  b:-0.50000

 -0.51708 = (-0.69613 + -0.33802)/2.0
 sum -  nocc_ = 1.00000000
 On Iteration in Bisection 2
 a: 1.00000  b:-0.50000

 -0.60660 = (-0.69613 + -0.51708)/2.0
 sum -  nocc_ = 1.00000000
 On Iteration in Bisection 3
 a: 1.00000  b:-0.50000

 -0.65136 = (-0.69613 + -0.60660)/2.0
 sum -  nocc_ = 1.00000000
 On Iteration in Bisection 4
 a: 1.00000  b:-0.50000

 -0.67374 = (-0.69613 + -0.65136)/2.0
 sum -  nocc_ = 0.00000000
 ef = -0.67374 sum = 1.00000 

 Iter: 0  T:      100.000  val:-0.673745  sumni 0.00000
 ne = 1.0000

Nuc Replusion =       0.182474899514
 1st iteration =      -0.083398288238
 In Bisection function HOMO = -0.284  LUMO =  1.960

 0.83779 = (-0.28410 + 1.95969)/2.0
 sum -  nocc_ = 2.00000000
 On Iteration in Bisection 0
 a: 2.00000  b:-0.50000

 0.27685 = (-0.28410 + 0.83779)/2.0
 sum -  nocc_ = 1.00000000
 On Iteration in Bisection 1
 a: 1.00000  b:-0.50000

 -0.00362 = (-0.28410 + 0.27685)/2.0
 sum -  nocc_ = 0.00000000
 ef = -0.00362 sum = 1.00000 

 Iter: 0  T:      100.000  val:-0.003624  sumni 0.00000
 ne = 1.0000

 iter:1  failiter:1  energy:     -0.964220153885  total:     -0.781745254371  error:     -0.131133779831
 In Bisection function HOMO = -0.322  LUMO =  1.923

 0.80024 = (-0.32211 + 1.92259)/2.0
 sum -  nocc_ = 2.00000000
 On Iteration in Bisection 0
 a: 2.00000  b:-0.50000

 0.23907 = (-0.32211 + 0.80024)/2.0
 sum -  nocc_ = 1.00000000
 On Iteration in Bisection 1
 a: 1.00000  b:-0.50000

 -0.04152 = (-0.32211 + 0.23907)/2.0
 sum -  nocc_ = 1.00000000
 On Iteration in Bisection 2
 a: 1.00000  b:-0.50000

 -0.18182 = (-0.32211 + -0.04152)/2.0
 sum -  nocc_ = 0.00000000
 ef = -0.18182 sum = 1.00000 

 Iter: 1  T:      100.000  val:-0.181815  sumni 0.00000
 ne = 1.0000

 iter:2  failiter:2  energy:     -1.004718245992  total:     -0.822243346479  error:     -0.040498092107
 In Bisection function HOMO = -0.322  LUMO =  1.916

 0.79674 = (-0.32216 + 1.91564)/2.0
 sum -  nocc_ = 2.00000000
 On Iteration in Bisection 0
 a: 2.00000  b:-0.50000

 0.23729 = (-0.32216 + 0.79674)/2.0
 sum -  nocc_ = 1.00000000
 On Iteration in Bisection 1
 a: 1.00000  b:-0.50000

 -0.04244 = (-0.32216 + 0.23729)/2.0
 sum -  nocc_ = 1.00000000
 On Iteration in Bisection 2
 a: 1.00000  b:-0.50000

 -0.18230 = (-0.32216 + -0.04244)/2.0
 sum -  nocc_ = 0.00000000
 ef = -0.18230 sum = 1.00000 

 Iter: 2  T:      100.000  val:-0.182301  sumni 0.00000
 ne = 1.0000

 iter:3  failiter:3  energy:     -1.006089992748  total:     -0.823615093235  error:     -0.001371746756
 In Bisection function HOMO = -0.322  LUMO =  1.904

 0.79084 = (-0.32234 + 1.90402)/2.0
 sum -  nocc_ = 2.00000000
 On Iteration in Bisection 0
 a: 2.00000  b:-0.50000

 0.23425 = (-0.32234 + 0.79084)/2.0
 sum -  nocc_ = 1.00000000
 On Iteration in Bisection 1
 a: 1.00000  b:-0.50000

 -0.04405 = (-0.32234 + 0.23425)/2.0
 sum -  nocc_ = 1.00000000
 On Iteration in Bisection 2
 a: 1.00000  b:-0.50000

 -0.18320 = (-0.32234 + -0.04405)/2.0
 sum -  nocc_ = 0.00000000
 ef = -0.18320 sum = 1.00000 

 Iter: 3  T:      100.000  val:-0.183196  sumni 0.00000
 ne = 1.0000

 iter:4  failiter:4  energy:     -1.007265970048  total:     -0.824791070534  error:     -0.001175977299
 In Bisection function HOMO = -0.322  LUMO =  1.892

 0.78473 = (-0.32236 + 1.89181)/2.0
 sum -  nocc_ = 2.00000000
 On Iteration in Bisection 0
 a: 2.00000  b:-0.50000

 0.23119 = (-0.32236 + 0.78473)/2.0
 sum -  nocc_ = 1.00000000
 On Iteration in Bisection 1
 a: 1.00000  b:-0.50000

 -0.04559 = (-0.32236 + 0.23119)/2.0
 sum -  nocc_ = 1.00000000
 On Iteration in Bisection 2
 a: 1.00000  b:-0.50000

 -0.18397 = (-0.32236 + -0.04559)/2.0
 sum -  nocc_ = 0.00000000
 ef = -0.18397 sum = 1.00000 

 Iter: 4  T:      100.000  val:-0.183971  sumni 0.00000
 ne = 1.0000

 iter:5  failiter:5  energy:     -1.008042623405  total:     -0.825567723891  error:     -0.000776653358
 In Bisection function HOMO = -0.322  LUMO =  1.880

 0.77880 = (-0.32232 + 1.87993)/2.0
 sum -  nocc_ = 2.00000000
 On Iteration in Bisection 0
 a: 2.00000  b:-0.50000

 0.22824 = (-0.32232 + 0.77880)/2.0
 sum -  nocc_ = 1.00000000
 On Iteration in Bisection 1
 a: 1.00000  b:-0.50000

 -0.04704 = (-0.32232 + 0.22824)/2.0
 sum -  nocc_ = 1.00000000
 On Iteration in Bisection 2
 a: 1.00000  b:-0.50000

 -0.18468 = (-0.32232 + -0.04704)/2.0
 sum -  nocc_ = 0.00000000
 ef = -0.18468 sum = 1.00000 

 Iter: 5  T:      100.000  val:-0.184682  sumni 0.00000
 ne = 1.0000

 iter:6  failiter:6  energy:     -1.008611534578  total:     -0.826136635065  error:     -0.000568911173
 In Bisection function HOMO = -0.322  LUMO =  1.869

 0.77312 = (-0.32228 + 1.86851)/2.0
 sum -  nocc_ = 2.00000000
 On Iteration in Bisection 0
 a: 2.00000  b:-0.50000

 0.22542 = (-0.32228 + 0.77312)/2.0
 sum -  nocc_ = 1.00000000
 On Iteration in Bisection 1
 a: 1.00000  b:-0.50000

 -0.04843 = (-0.32228 + 0.22542)/2.0
 sum -  nocc_ = 1.00000000
 On Iteration in Bisection 2
 a: 1.00000  b:-0.50000

 -0.18536 = (-0.32228 + -0.04843)/2.0
 sum -  nocc_ = 0.00000000
 ef = -0.18536 sum = 1.00000 

 Iter: 6  T:      100.000  val:-0.185356  sumni 0.00000
 ne = 1.0000

 iter:7  failiter:7  energy:     -1.009057158478  total:     -0.826582258965  error:     -0.000445623900
 In Bisection function HOMO = -0.322  LUMO =  1.857

 0.76762 = (-0.32225 + 1.85748)/2.0
 sum -  nocc_ = 2.00000000
 On Iteration in Bisection 0
 a: 2.00000  b:-0.50000

 0.22268 = (-0.32225 + 0.76762)/2.0
 sum -  nocc_ = 1.00000000
 On Iteration in Bisection 1
 a: 1.00000  b:-0.50000

 -0.04978 = (-0.32225 + 0.22268)/2.0
 sum -  nocc_ = 1.00000000
 On Iteration in Bisection 2
 a: 1.00000  b:-0.50000

 -0.18602 = (-0.32225 + -0.04978)/2.0
 sum -  nocc_ = 0.00000000
 ef = -0.18602 sum = 1.00000 

 Iter: 7  T:      100.000  val:-0.186016  sumni 0.00000
 ne = 1.0000

 iter:8  failiter:8  energy:     -1.009425067891  total:     -0.826950168377  error:     -0.000367909412
 In Bisection function HOMO = -0.322  LUMO =  1.847

 0.76227 = (-0.32223 + 1.84677)/2.0
 sum -  nocc_ = 2.00000000
 On Iteration in Bisection 0
 a: 2.00000  b:-0.50000

 0.22002 = (-0.32223 + 0.76227)/2.0
 sum -  nocc_ = 1.00000000
 On Iteration in Bisection 1
 a: 1.00000  b:-0.50000

 -0.05111 = (-0.32223 + 0.22002)/2.0
 sum -  nocc_ = 1.00000000
 On Iteration in Bisection 2
 a: 1.00000  b:-0.50000

 -0.18667 = (-0.32223 + -0.05111)/2.0
 sum -  nocc_ = 0.00000000
 ef = -0.18667 sum = 1.00000 

 Iter: 8  T:      100.000  val:-0.186670  sumni 0.00000
 ne = 1.0000

 iter:9  failiter:9  energy:     -1.009741612339  total:     -0.827266712826  error:     -0.000316544449
 In Bisection function HOMO = -0.322  LUMO =  1.836

 0.75703 = (-0.32223 + 1.83629)/2.0
 sum -  nocc_ = 2.00000000
 On Iteration in Bisection 0
 a: 2.00000  b:-0.50000

 0.21740 = (-0.32223 + 0.75703)/2.0
 sum -  nocc_ = 1.00000000
 On Iteration in Bisection 1
 a: 1.00000  b:-0.50000

 -0.05242 = (-0.32223 + 0.21740)/2.0
 sum -  nocc_ = 1.00000000
 On Iteration in Bisection 2
 a: 1.00000  b:-0.50000

 -0.18733 = (-0.32223 + -0.05242)/2.0
 sum -  nocc_ = 0.00000000
 ef = -0.18733 sum = 1.00000 

 Iter: 9  T:      100.000  val:-0.187325  sumni 0.00000
 ne = 1.0000

 iter:10  failiter:10  energy:     -1.010023103518  total:     -0.827548204004  error:     -0.000281491179
 In Bisection function HOMO = -0.322  LUMO =  1.826

 0.75186 = (-0.32225 + 1.82598)/2.0
 sum -  nocc_ = 2.00000000
 On Iteration in Bisection 0
 a: 2.00000  b:-0.50000

 0.21480 = (-0.32225 + 0.75186)/2.0
 sum -  nocc_ = 1.00000000
 On Iteration in Bisection 1
 a: 1.00000  b:-0.50000

 -0.05372 = (-0.32225 + 0.21480)/2.0
 sum -  nocc_ = 1.00000000
 On Iteration in Bisection 2
 a: 1.00000  b:-0.50000

 -0.18799 = (-0.32225 + -0.05372)/2.0
 sum -  nocc_ = 0.00000000
 ef = -0.18799 sum = 1.00000 

 Iter: 10  T:      100.000  val:-0.187989  sumni 0.00000
 ne = 1.0000

 iter:11  failiter:11  energy:     -1.010280224372  total:     -0.827805324859  error:     -0.000257120854
 In Bisection function HOMO = -0.322  LUMO =  1.816

 0.74673 = (-0.32229 + 1.81575)/2.0
 sum -  nocc_ = 2.00000000
 On Iteration in Bisection 0
 a: 2.00000  b:-0.50000

 0.21222 = (-0.32229 + 0.74673)/2.0
 sum -  nocc_ = 1.00000000
 On Iteration in Bisection 1
 a: 1.00000  b:-0.50000

 -0.05504 = (-0.32229 + 0.21222)/2.0
 sum -  nocc_ = 1.00000000
 On Iteration in Bisection 2
 a: 1.00000  b:-0.50000

 -0.18867 = (-0.32229 + -0.05504)/2.0
 sum -  nocc_ = 0.00000000
 ef = -0.18867 sum = 1.00000 

 Iter: 11  T:      100.000  val:-0.188666  sumni 0.00000
 ne = 1.0000

 iter:12  failiter:12  energy:     -1.010520312623  total:     -0.828045413109  error:     -0.000240088250
 In Bisection function HOMO = -0.322  LUMO =  1.806

 0.74159 = (-0.32235 + 1.80553)/2.0
 sum -  nocc_ = 2.00000000
 On Iteration in Bisection 0
 a: 2.00000  b:-0.50000

 0.20962 = (-0.32235 + 0.74159)/2.0
 sum -  nocc_ = 1.00000000
 On Iteration in Bisection 1
 a: 1.00000  b:-0.50000

 -0.05637 = (-0.32235 + 0.20962)/2.0
 sum -  nocc_ = 1.00000000
 On Iteration in Bisection 2
 a: 1.00000  b:-0.50000

 -0.18936 = (-0.32235 + -0.05637)/2.0
 sum -  nocc_ = 0.00000000
 ef = -0.18936 sum = 1.00000 

 Iter: 12  T:      100.000  val:-0.189361  sumni 0.00000
 ne = 1.0000

 iter:13  failiter:13  energy:     -1.010748612183  total:     -0.828273712669  error:     -0.000228299560
 In Bisection function HOMO = -0.322  LUMO =  1.795

 0.73642 = (-0.32243 + 1.79528)/2.0
 sum -  nocc_ = 2.00000000
 On Iteration in Bisection 0
 a: 2.00000  b:-0.50000

 0.20699 = (-0.32243 + 0.73642)/2.0
 sum -  nocc_ = 1.00000000
 On Iteration in Bisection 1
 a: 1.00000  b:-0.50000

 -0.05772 = (-0.32243 + 0.20699)/2.0
 sum -  nocc_ = 1.00000000
 On Iteration in Bisection 2
 a: 1.00000  b:-0.50000

 -0.19008 = (-0.32243 + -0.05772)/2.0
 sum -  nocc_ = 0.00000000
 ef = -0.19008 sum = 1.00000 

 Iter: 13  T:      100.000  val:-0.190077  sumni 0.00000
 ne = 1.0000

 iter:14  failiter:14  energy:     -1.010968990797  total:     -0.828494091284  error:     -0.000220378615
 In Bisection function HOMO = -0.323  LUMO =  1.785

 0.73120 = (-0.32253 + 1.78493)/2.0
 sum -  nocc_ = 2.00000000
 On Iteration in Bisection 0
 a: 2.00000  b:-0.50000

 0.20433 = (-0.32253 + 0.73120)/2.0
 sum -  nocc_ = 1.00000000
 On Iteration in Bisection 1
 a: 1.00000  b:-0.50000

 -0.05910 = (-0.32253 + 0.20433)/2.0
 sum -  nocc_ = 1.00000000
 On Iteration in Bisection 2
 a: 1.00000  b:-0.50000

 -0.19082 = (-0.32253 + -0.05910)/2.0
 sum -  nocc_ = 0.00000000
 ef = -0.19082 sum = 1.00000 

 Iter: 14  T:      100.000  val:-0.190818  sumni 0.00000
 ne = 1.0000

 iter:15  failiter:15  energy:     -1.011184364613  total:     -0.828709465100  error:     -0.000215373816
 In Bisection function HOMO = -0.323  LUMO =  1.774

 0.72590 = (-0.32266 + 1.77445)/2.0
 sum -  nocc_ = 2.00000000
 On Iteration in Bisection 0
 a: 2.00000  b:-0.50000

 0.20162 = (-0.32266 + 0.72590)/2.0
 sum -  nocc_ = 1.00000000
 On Iteration in Bisection 1
 a: 1.00000  b:-0.50000

 -0.06052 = (-0.32266 + 0.20162)/2.0
 sum -  nocc_ = 1.00000000
 On Iteration in Bisection 2
 a: 1.00000  b:-0.50000

 -0.19159 = (-0.32266 + -0.06052)/2.0
 sum -  nocc_ = 0.00000000
 ef = -0.19159 sum = 1.00000 

 Iter: 15  T:      100.000  val:-0.191586  sumni 0.00000
 ne = 1.0000

 iter:16  failiter:16  energy:     -1.011396952827  total:     -0.828922053313  error:     -0.000212588213
 In Bisection function HOMO = -0.323  LUMO =  1.764

 0.72051 = (-0.32280 + 1.76381)/2.0
 sum -  nocc_ = 2.00000000
 On Iteration in Bisection 0
 a: 2.00000  b:-0.50000

 0.19885 = (-0.32280 + 0.72051)/2.0
 sum -  nocc_ = 1.00000000
 On Iteration in Bisection 1
 a: 1.00000  b:-0.50000

 -0.06197 = (-0.32280 + 0.19885)/2.0
 sum -  nocc_ = 1.00000000
 On Iteration in Bisection 2
 a: 1.00000  b:-0.50000

 -0.19238 = (-0.32280 + -0.06197)/2.0
 sum -  nocc_ = 0.00000000
 ef = -0.19238 sum = 1.00000 

 Iter: 16  T:      100.000  val:-0.192385  sumni 0.00000
 ne = 1.0000

 iter:17  failiter:17  energy:     -1.011608428744  total:     -0.829133529230  error:     -0.000211475917
 In Bisection function HOMO = -0.323  LUMO =  1.753

 0.71501 = (-0.32296 + 1.75299)/2.0
 sum -  nocc_ = 2.00000000
 On Iteration in Bisection 0
 a: 2.00000  b:-0.50000

 0.19603 = (-0.32296 + 0.71501)/2.0
 sum -  nocc_ = 1.00000000
 On Iteration in Bisection 1
 a: 1.00000  b:-0.50000

 -0.06347 = (-0.32296 + 0.19603)/2.0
 sum -  nocc_ = 1.00000000
 On Iteration in Bisection 2
 a: 1.00000  b:-0.50000

 -0.19321 = (-0.32296 + -0.06347)/2.0
 sum -  nocc_ = 0.00000000
 ef = -0.19321 sum = 1.00000 

 Iter: 17  T:      100.000  val:-0.193214  sumni 0.00000
 ne = 1.0000

 iter:18  failiter:18  energy:     -1.011820005044  total:     -0.829345105530  error:     -0.000211576301
 In Bisection function HOMO = -0.323  LUMO =  1.742

 0.70941 = (-0.32314 + 1.74196)/2.0
 sum -  nocc_ = 2.00000000
 On Iteration in Bisection 0
 a: 2.00000  b:-0.50000

 0.19313 = (-0.32314 + 0.70941)/2.0
 sum -  nocc_ = 1.00000000
 On Iteration in Bisection 1
 a: 1.00000  b:-0.50000

 -0.06501 = (-0.32314 + 0.19313)/2.0
 sum -  nocc_ = 1.00000000
 On Iteration in Bisection 2
 a: 1.00000  b:-0.50000

 -0.19408 = (-0.32314 + -0.06501)/2.0
 sum -  nocc_ = 0.00000000
 ef = -0.19408 sum = 1.00000 

 Iter: 18  T:      100.000  val:-0.194076  sumni 0.00000
 ne = 1.0000

 iter:19  failiter:19  energy:     -1.012032476446  total:     -0.829557576932  error:     -0.000212471402
 In Bisection function HOMO = -0.323  LUMO =  1.731

 0.70369 = (-0.32335 + 1.73074)/2.0
 sum -  nocc_ = 2.00000000
 On Iteration in Bisection 0
 a: 2.00000  b:-0.50000

 0.19017 = (-0.32335 + 0.70369)/2.0
 sum -  nocc_ = 1.00000000
 On Iteration in Bisection 1
 a: 1.00000  b:-0.50000

 -0.06659 = (-0.32335 + 0.19017)/2.0
 sum -  nocc_ = 1.00000000
 On Iteration in Bisection 2
 a: 1.00000  b:-0.50000

 -0.19497 = (-0.32335 + -0.06659)/2.0
 sum -  nocc_ = 0.00000000
 ef = -0.19497 sum = 1.00000 

 Iter: 19  T:      100.000  val:-0.194968  sumni 0.00000
 ne = 1.0000

 iter:20  failiter:20  energy:     -1.012246235661  total:     -0.829771336147  error:     -0.000213759215
 In Bisection function HOMO = -0.324  LUMO =  1.719

 0.69788 = (-0.32357 + 1.71932)/2.0
 sum -  nocc_ = 2.00000000
 On Iteration in Bisection 0
 a: 2.00000  b:-0.50000

 0.18715 = (-0.32357 + 0.69788)/2.0
 sum -  nocc_ = 1.00000000
 On Iteration in Bisection 1
 a: 1.00000  b:-0.50000

 -0.06821 = (-0.32357 + 0.18715)/2.0
 sum -  nocc_ = 1.00000000
 On Iteration in Bisection 2
 a: 1.00000  b:-0.50000

 -0.19589 = (-0.32357 + -0.06821)/2.0
 sum -  nocc_ = 0.00000000
 ef = -0.19589 sum = 1.00000 

 Iter: 20  T:      100.000  val:-0.195891  sumni 0.00000
 ne = 1.0000

 iter:21  failiter:21  energy:     -1.012461275206  total:     -0.829986375692  error:     -0.000215039545
 In Bisection function HOMO = -0.324  LUMO =  1.708

 0.69197 = (-0.32381 + 1.70774)/2.0
 sum -  nocc_ = 2.00000000
 On Iteration in Bisection 0
 a: 2.00000  b:-0.50000

 0.18408 = (-0.32381 + 0.69197)/2.0
 sum -  nocc_ = 1.00000000
 On Iteration in Bisection 1
 a: 1.00000  b:-0.50000

 -0.06987 = (-0.32381 + 0.18408)/2.0
 sum -  nocc_ = 1.00000000
 On Iteration in Bisection 2
 a: 1.00000  b:-0.50000

 -0.19684 = (-0.32381 + -0.06987)/2.0
 sum -  nocc_ = 0.00000000
 ef = -0.19684 sum = 1.00000 

 Iter: 21  T:      100.000  val:-0.196839  sumni 0.00000
 ne = 1.0000

 iter:22  failiter:22  energy:     -1.012677186308  total:     -0.830202286794  error:     -0.000215911102
 In Bisection function HOMO = -0.324  LUMO =  1.696

 0.68598 = (-0.32407 + 1.69603)/2.0
 sum -  nocc_ = 2.00000000
 On Iteration in Bisection 0
 a: 2.00000  b:-0.50000

 0.18096 = (-0.32407 + 0.68598)/2.0
 sum -  nocc_ = 1.00000000
 On Iteration in Bisection 1
 a: 1.00000  b:-0.50000

 -0.07155 = (-0.32407 + 0.18096)/2.0
 sum -  nocc_ = 1.00000000
 On Iteration in Bisection 2
 a: 1.00000  b:-0.50000

 -0.19781 = (-0.32407 + -0.07155)/2.0
 sum -  nocc_ = 0.00000000
 ef = -0.19781 sum = 1.00000 

 Iter: 22  T:      100.000  val:-0.197809  sumni 0.00000
 ne = 1.0000

 iter:23  failiter:23  energy:     -1.012893165567  total:     -0.830418266054  error:     -0.000215979260
 In Bisection function HOMO = -0.324  LUMO =  1.684

 0.67995 = (-0.32433 + 1.68423)/2.0
 sum -  nocc_ = 2.00000000
 On Iteration in Bisection 0
 a: 2.00000  b:-0.50000

 0.17781 = (-0.32433 + 0.67995)/2.0
 sum -  nocc_ = 1.00000000
 On Iteration in Bisection 1
 a: 1.00000  b:-0.50000

 -0.07326 = (-0.32433 + 0.17781)/2.0
 sum -  nocc_ = 1.00000000
 On Iteration in Bisection 2
 a: 1.00000  b:-0.50000

 -0.19880 = (-0.32433 + -0.07326)/2.0
 sum -  nocc_ = 0.00000000
 ef = -0.19880 sum = 1.00000 

 Iter: 23  T:      100.000  val:-0.198796  sumni 0.00000
 ne = 1.0000

 iter:24  failiter:24  energy:     -1.013108039089  total:     -0.830633139575  error:     -0.000214873521
 In Bisection function HOMO = -0.325  LUMO =  1.672

 0.67390 = (-0.32460 + 1.67241)/2.0
 sum -  nocc_ = 2.00000000
 On Iteration in Bisection 0
 a: 2.00000  b:-0.50000

 0.17465 = (-0.32460 + 0.67390)/2.0
 sum -  nocc_ = 1.00000000
 On Iteration in Bisection 1
 a: 1.00000  b:-0.50000

 -0.07498 = (-0.32460 + 0.17465)/2.0
 sum -  nocc_ = 1.00000000
 On Iteration in Bisection 2
 a: 1.00000  b:-0.50000

 -0.19979 = (-0.32460 + -0.07498)/2.0
 sum -  nocc_ = 0.00000000
 ef = -0.19979 sum = 1.00000 

 Iter: 24  T:      100.000  val:-0.199791  sumni 0.00000
 ne = 1.0000

 iter:25  failiter:25  energy:     -1.013320311612  total:     -0.830845412098  error:     -0.000212272523
 In Bisection function HOMO = -0.325  LUMO =  1.661

 0.66787 = (-0.32488 + 1.66063)/2.0
 sum -  nocc_ = 2.00000000
 On Iteration in Bisection 0
 a: 2.00000  b:-0.50000

 0.17150 = (-0.32488 + 0.66787)/2.0
 sum -  nocc_ = 1.00000000
 On Iteration in Bisection 1
 a: 1.00000  b:-0.50000

 -0.07669 = (-0.32488 + 0.17150)/2.0
 sum -  nocc_ = 1.00000000
 On Iteration in Bisection 2
 a: 1.00000  b:-0.50000

 -0.20079 = (-0.32488 + -0.07669)/2.0
 sum -  nocc_ = 0.00000000
 ef = -0.20079 sum = 1.00000 

 Iter: 25  T:      100.000  val:-0.200787  sumni 0.00000
 ne = 1.0000

 iter:26  failiter:26  energy:     -1.013528244353  total:     -0.831053344840  error:     -0.000207932741
 In Bisection function HOMO = -0.325  LUMO =  1.649

 0.66190 = (-0.32516 + 1.64896)/2.0
 sum -  nocc_ = 2.00000000
 On Iteration in Bisection 0
 a: 2.00000  b:-0.50000

 0.16837 = (-0.32516 + 0.66190)/2.0
 sum -  nocc_ = 1.00000000
 On Iteration in Bisection 1
 a: 1.00000  b:-0.50000

 -0.07839 = (-0.32516 + 0.16837)/2.0
 sum -  nocc_ = 1.00000000
 On Iteration in Bisection 2
 a: 1.00000  b:-0.50000

 -0.20177 = (-0.32516 + -0.07839)/2.0
 sum -  nocc_ = 0.00000000
 ef = -0.20177 sum = 1.00000 

 Iter: 26  T:      100.000  val:-0.201775  sumni 0.00000
 ne = 1.0000

 iter:27  failiter:27  energy:     -1.013729959874  total:     -0.831255060361  error:     -0.000201715521
 In Bisection function HOMO = -0.325  LUMO =  1.637

 0.65602 = (-0.32543 + 1.63748)/2.0
 sum -  nocc_ = 2.00000000
 On Iteration in Bisection 0
 a: 2.00000  b:-0.50000

 0.16530 = (-0.32543 + 0.65602)/2.0
 sum -  nocc_ = 1.00000000
 On Iteration in Bisection 1
 a: 1.00000  b:-0.50000

 -0.08007 = (-0.32543 + 0.16530)/2.0
 sum -  nocc_ = 1.00000000
 On Iteration in Bisection 2
 a: 1.00000  b:-0.50000

 -0.20275 = (-0.32543 + -0.08007)/2.0
 sum -  nocc_ = 0.00000000
 ef = -0.20275 sum = 1.00000 

 Iter: 27  T:      100.000  val:-0.202747  sumni 0.00000
 ne = 1.0000

 iter:28  failiter:28  energy:     -1.013923566302  total:     -0.831448666789  error:     -0.000193606428
 In Bisection function HOMO = -0.326  LUMO =  1.626

 0.65029 = (-0.32569 + 1.62626)/2.0
 sum -  nocc_ = 2.00000000
 On Iteration in Bisection 0
 a: 2.00000  b:-0.50000

 0.16230 = (-0.32569 + 0.65029)/2.0
 sum -  nocc_ = 1.00000000
 On Iteration in Bisection 1
 a: 1.00000  b:-0.50000

 -0.08170 = (-0.32569 + 0.16230)/2.0
 sum -  nocc_ = 1.00000000
 On Iteration in Bisection 2
 a: 1.00000  b:-0.50000

 -0.20369 = (-0.32569 + -0.08170)/2.0
 sum -  nocc_ = 0.00000000
 ef = -0.20369 sum = 1.00000 

 Iter: 28  T:      100.000  val:-0.203693  sumni 0.00000
 ne = 1.0000

 iter:29  failiter:29  energy:     -1.014107288028  total:     -0.831632388514  error:     -0.000183721726
 In Bisection function HOMO = -0.326  LUMO =  1.615

 0.64472 = (-0.32594 + 1.61538)/2.0
 sum -  nocc_ = 2.00000000
 On Iteration in Bisection 0
 a: 2.00000  b:-0.50000

 0.15939 = (-0.32594 + 0.64472)/2.0
 sum -  nocc_ = 1.00000000
 On Iteration in Bisection 1
 a: 1.00000  b:-0.50000

 -0.08327 = (-0.32594 + 0.15939)/2.0
 sum -  nocc_ = 1.00000000
 On Iteration in Bisection 2
 a: 1.00000  b:-0.50000

 -0.20461 = (-0.32594 + -0.08327)/2.0
 sum -  nocc_ = 0.00000000
 ef = -0.20461 sum = 1.00000 

 Iter: 29  T:      100.000  val:-0.204608  sumni 0.00000
 ne = 1.0000

 iter:30  failiter:30  energy:     -1.014279587219  total:     -0.831804687705  error:     -0.000172299191
 In Bisection function HOMO = -0.326  LUMO =  1.605

 0.63936 = (-0.32617 + 1.60490)/2.0
 sum -  nocc_ = 2.00000000
 On Iteration in Bisection 0
 a: 2.00000  b:-0.50000

 0.15659 = (-0.32617 + 0.63936)/2.0
 sum -  nocc_ = 1.00000000
 On Iteration in Bisection 1
 a: 1.00000  b:-0.50000

 -0.08479 = (-0.32617 + 0.15659)/2.0
 sum -  nocc_ = 1.00000000
 On Iteration in Bisection 2
 a: 1.00000  b:-0.50000

 -0.20548 = (-0.32617 + -0.08479)/2.0
 sum -  nocc_ = 0.00000000
 ef = -0.20548 sum = 1.00000 

 Iter: 30  T:      100.000  val:-0.205482  sumni 0.00000
 ne = 1.0000

 iter:31  failiter:31  energy:     -1.014439261085  total:     -0.831964361571  error:     -0.000159673866
 In Bisection function HOMO = -0.326  LUMO =  1.595

 0.63424 = (-0.32639 + 1.59487)/2.0
 sum -  nocc_ = 2.00000000
 On Iteration in Bisection 0
 a: 2.00000  b:-0.50000

 0.15392 = (-0.32639 + 0.63424)/2.0
 sum -  nocc_ = 1.00000000
 On Iteration in Bisection 1
 a: 1.00000  b:-0.50000

 -0.08623 = (-0.32639 + 0.15392)/2.0
 sum -  nocc_ = 1.00000000
 On Iteration in Bisection 2
 a: 1.00000  b:-0.50000

 -0.20631 = (-0.32639 + -0.08623)/2.0
 sum -  nocc_ = 0.00000000
 ef = -0.20631 sum = 1.00000 

 Iter: 31  T:      100.000  val:-0.206312  sumni 0.00000
 ne = 1.0000

 iter:32  failiter:32  energy:     -1.014585503836  total:     -0.832110604322  error:     -0.000146242751
 In Bisection function HOMO = -0.327  LUMO =  1.585

 0.62937 = (-0.32659 + 1.58534)/2.0
 sum -  nocc_ = 2.00000000
 On Iteration in Bisection 0
 a: 2.00000  b:-0.50000

 0.15139 = (-0.32659 + 0.62937)/2.0
 sum -  nocc_ = 1.00000000
 On Iteration in Bisection 1
 a: 1.00000  b:-0.50000

 -0.08760 = (-0.32659 + 0.15139)/2.0
 sum -  nocc_ = 1.00000000
 On Iteration in Bisection 2
 a: 1.00000  b:-0.50000

 -0.20709 = (-0.32659 + -0.08760)/2.0
 sum -  nocc_ = 0.00000000
 ef = -0.20709 sum = 1.00000 

 Iter: 32  T:      100.000  val:-0.207093  sumni 0.00000
 ne = 1.0000

 iter:33  failiter:33  energy:     -1.014717928502  total:     -0.832243028988  error:     -0.000132424666
 In Bisection function HOMO = -0.327  LUMO =  1.576

 0.62478 = (-0.32677 + 1.57633)/2.0
 sum -  nocc_ = 2.00000000
 On Iteration in Bisection 0
 a: 2.00000  b:-0.50000

 0.14901 = (-0.32677 + 0.62478)/2.0
 sum -  nocc_ = 1.00000000
 On Iteration in Bisection 1
 a: 1.00000  b:-0.50000

 -0.08888 = (-0.32677 + 0.14901)/2.0
 sum -  nocc_ = 1.00000000
 On Iteration in Bisection 2
 a: 1.00000  b:-0.50000

 -0.20782 = (-0.32677 + -0.08888)/2.0
 sum -  nocc_ = 0.00000000
 ef = -0.20782 sum = 1.00000 

 Iter: 33  T:      100.000  val:-0.207823  sumni 0.00000
 ne = 1.0000

 iter:34  failiter:34  energy:     -1.014836550564  total:     -0.832361651050  error:     -0.000118622062
 In Bisection function HOMO = -0.327  LUMO =  1.568

 0.62047 = (-0.32693 + 1.56786)/2.0
 sum -  nocc_ = 2.00000000
 On Iteration in Bisection 0
 a: 2.00000  b:-0.50000

 0.14677 = (-0.32693 + 0.62047)/2.0
 sum -  nocc_ = 1.00000000
 On Iteration in Bisection 1
 a: 1.00000  b:-0.50000

 -0.09008 = (-0.32693 + 0.14677)/2.0
 sum -  nocc_ = 1.00000000
 On Iteration in Bisection 2
 a: 1.00000  b:-0.50000

 -0.20850 = (-0.32693 + -0.09008)/2.0
 sum -  nocc_ = 0.00000000
 ef = -0.20850 sum = 1.00000 

 Iter: 34  T:      100.000  val:-0.208501  sumni 0.00000
 ne = 1.0000

 iter:35  failiter:35  energy:     -1.014941740815  total:     -0.832466841301  error:     -0.000105190252
 In Bisection function HOMO = -0.327  LUMO =  1.560

 0.61644 = (-0.32707 + 1.55995)/2.0
 sum -  nocc_ = 2.00000000
 On Iteration in Bisection 0
 a: 2.00000  b:-0.50000

 0.14469 = (-0.32707 + 0.61644)/2.0
 sum -  nocc_ = 1.00000000
 On Iteration in Bisection 1
 a: 1.00000  b:-0.50000

 -0.09119 = (-0.32707 + 0.14469)/2.0
 sum -  nocc_ = 1.00000000
 On Iteration in Bisection 2
 a: 1.00000  b:-0.50000

 -0.20913 = (-0.32707 + -0.09119)/2.0
 sum -  nocc_ = 0.00000000
 ef = -0.20913 sum = 1.00000 

 Iter: 35  T:      100.000  val:-0.209127  sumni 0.00000
 ne = 1.0000

 iter:36  failiter:36  energy:     -1.015034158043  total:     -0.832559258530  error:     -0.000092417228
 In Bisection function HOMO = -0.327  LUMO =  1.553

 0.61270 = (-0.32719 + 1.55258)/2.0
 sum -  nocc_ = 2.00000000
 On Iteration in Bisection 0
 a: 2.00000  b:-0.50000

 0.14275 = (-0.32719 + 0.61270)/2.0
 sum -  nocc_ = 1.00000000
 On Iteration in Bisection 1
 a: 1.00000  b:-0.50000

 -0.09222 = (-0.32719 + 0.14275)/2.0
 sum -  nocc_ = 1.00000000
 On Iteration in Bisection 2
 a: 1.00000  b:-0.50000

 -0.20970 = (-0.32719 + -0.09222)/2.0
 sum -  nocc_ = 0.00000000
 ef = -0.20970 sum = 1.00000 

 Iter: 36  T:      100.000  val:-0.209702  sumni 0.00000
 ne = 1.0000

 iter:37  failiter:37  energy:     -1.015114672693  total:     -0.832639773179  error:     -0.000080514649
 In Bisection function HOMO = -0.327  LUMO =  1.546

 0.60923 = (-0.32729 + 1.54575)/2.0
 sum -  nocc_ = 2.00000000
 On Iteration in Bisection 0
 a: 2.00000  b:-0.50000

 0.14097 = (-0.32729 + 0.60923)/2.0
 sum -  nocc_ = 1.00000000
 On Iteration in Bisection 1
 a: 1.00000  b:-0.50000

 -0.09316 = (-0.32729 + 0.14097)/2.0
 sum -  nocc_ = 1.00000000
 On Iteration in Bisection 2
 a: 1.00000  b:-0.50000

 -0.21023 = (-0.32729 + -0.09316)/2.0
 sum -  nocc_ = 0.00000000
 ef = -0.21023 sum = 1.00000 

 Iter: 37  T:      100.000  val:-0.210228  sumni 0.00000
 ne = 1.0000

 iter:38  failiter:38  energy:     -1.015184291197  total:     -0.832709391683  error:     -0.000069618504
 In Bisection function HOMO = -0.327  LUMO =  1.539

 0.60603 = (-0.32738 + 1.53944)/2.0
 sum -  nocc_ = 2.00000000
 On Iteration in Bisection 0
 a: 2.00000  b:-0.50000

 0.13932 = (-0.32738 + 0.60603)/2.0
 sum -  nocc_ = 1.00000000
 On Iteration in Bisection 1
 a: 1.00000  b:-0.50000

 -0.09403 = (-0.32738 + 0.13932)/2.0
 sum -  nocc_ = 1.00000000
 On Iteration in Bisection 2
 a: 1.00000  b:-0.50000

 -0.21071 = (-0.32738 + -0.09403)/2.0
 sum -  nocc_ = 0.00000000
 ef = -0.21071 sum = 1.00000 

 Iter: 38  T:      100.000  val:-0.210708  sumni 0.00000
 ne = 1.0000

 iter:39  failiter:39  energy:     -1.015244088008  total:     -0.832769188494  error:     -0.000059796811
 In Bisection function HOMO = -0.327  LUMO =  1.534

 0.60309 = (-0.32746 + 1.53363)/2.0
 sum -  nocc_ = 2.00000000
 On Iteration in Bisection 0
 a: 2.00000  b:-0.50000

 0.13781 = (-0.32746 + 0.60309)/2.0
 sum -  nocc_ = 1.00000000
 On Iteration in Bisection 1
 a: 1.00000  b:-0.50000

 -0.09483 = (-0.32746 + 0.13781)/2.0
 sum -  nocc_ = 1.00000000
 On Iteration in Bisection 2
 a: 1.00000  b:-0.50000

 -0.21114 = (-0.32746 + -0.09483)/2.0
 sum -  nocc_ = 0.00000000
 ef = -0.21114 sum = 1.00000 

 Iter: 39  T:      100.000  val:-0.211144  sumni 0.00000
 ne = 1.0000

 iter:40  failiter:40  energy:     -1.015295149418  total:     -0.832820249904  error:     -0.000051061410
 In Bisection function HOMO = -0.328  LUMO =  1.528

 0.60039 = (-0.32753 + 1.52830)/2.0
 sum -  nocc_ = 2.00000000
 On Iteration in Bisection 0
 a: 2.00000  b:-0.50000

 0.13643 = (-0.32753 + 0.60039)/2.0
 sum -  nocc_ = 1.00000000
 On Iteration in Bisection 1
 a: 1.00000  b:-0.50000

 -0.09555 = (-0.32753 + 0.13643)/2.0
 sum -  nocc_ = 1.00000000
 On Iteration in Bisection 2
 a: 1.00000  b:-0.50000

 -0.21154 = (-0.32753 + -0.09555)/2.0
 sum -  nocc_ = 0.00000000
 ef = -0.21154 sum = 1.00000 

 Iter: 40  T:      100.000  val:-0.211540  sumni 0.00000
 ne = 1.0000

 iter:41  failiter:41  energy:     -1.015338530656  total:     -0.832863631142  error:     -0.000043381238
 In Bisection function HOMO = -0.328  LUMO =  1.523

 0.59792 = (-0.32759 + 1.52342)/2.0
 sum -  nocc_ = 2.00000000
 On Iteration in Bisection 0
 a: 2.00000  b:-0.50000

 0.13517 = (-0.32759 + 0.59792)/2.0
 sum -  nocc_ = 1.00000000
 On Iteration in Bisection 1
 a: 1.00000  b:-0.50000

 -0.09621 = (-0.32759 + 0.13517)/2.0
 sum -  nocc_ = 1.00000000
 On Iteration in Bisection 2
 a: 1.00000  b:-0.50000

 -0.21190 = (-0.32759 + -0.09621)/2.0
 sum -  nocc_ = 0.00000000
 ef = -0.21190 sum = 1.00000 

 Iter: 41  T:      100.000  val:-0.211898  sumni 0.00000
 ne = 1.0000

 iter:42  failiter:42  energy:     -1.015375225849  total:     -0.832900326335  error:     -0.000036695193
 In Bisection function HOMO = -0.328  LUMO =  1.519

 0.59566 = (-0.32763 + 1.51895)/2.0
 sum -  nocc_ = 2.00000000
 On Iteration in Bisection 0
 a: 2.00000  b:-0.50000

 0.13401 = (-0.32763 + 0.59566)/2.0
 sum -  nocc_ = 1.00000000
 On Iteration in Bisection 1
 a: 1.00000  b:-0.50000

 -0.09681 = (-0.32763 + 0.13401)/2.0
 sum -  nocc_ = 1.00000000
 On Iteration in Bisection 2
 a: 1.00000  b:-0.50000

 -0.21222 = (-0.32763 + -0.09681)/2.0
 sum -  nocc_ = 0.00000000
 ef = -0.21222 sum = 1.00000 

 Iter: 42  T:      100.000  val:-0.212221  sumni 0.00000
 ne = 1.0000

 iter:43  failiter:43  energy:     -1.015406149243  total:     -0.832931249729  error:     -0.000030923394
 In Bisection function HOMO = -0.328  LUMO =  1.515

 0.59360 = (-0.32767 + 1.51488)/2.0
 sum -  nocc_ = 1.99999991
 On Iteration in Bisection 0
 a: 2.00000  b:-0.50000

 0.13297 = (-0.32767 + 0.59360)/2.0
 sum -  nocc_ = 1.00000000
 On Iteration in Bisection 1
 a: 1.00000  b:-0.50000

 -0.09735 = (-0.32767 + 0.13297)/2.0
 sum -  nocc_ = 1.00000000
 On Iteration in Bisection 2
 a: 1.00000  b:-0.50000

 -0.21251 = (-0.32767 + -0.09735)/2.0
 sum -  nocc_ = 0.00000000
 ef = -0.21251 sum = 1.00000 

 Iter: 43  T:      100.000  val:-0.212513  sumni 0.00000
 ne = 1.0000

 iter:44  failiter:44  energy:     -1.015432125545  total:     -0.832957226031  error:     -0.000025976302
 In Bisection function HOMO = -0.328  LUMO =  1.511

 0.59173 = (-0.32771 + 1.51117)/2.0
 sum -  nocc_ = 1.99564713
 On Iteration in Bisection 0
 a: 1.99565  b:-0.50000

 0.13201 = (-0.32771 + 0.59173)/2.0
 sum -  nocc_ = 1.00000000
 On Iteration in Bisection 1
 a: 1.00000  b:-0.50000

 -0.09785 = (-0.32771 + 0.13201)/2.0
 sum -  nocc_ = 1.00000000
 On Iteration in Bisection 2
 a: 1.00000  b:-0.50000

 -0.21278 = (-0.32771 + -0.09785)/2.0
 sum -  nocc_ = 0.00000000
 ef = -0.21278 sum = 1.00000 

 Iter: 44  T:      100.000  val:-0.212776  sumni 0.00000
 ne = 1.0000

 iter:45  failiter:45  energy:     -1.015453887156  total:     -0.832978987642  error:     -0.000021761611
 In Bisection function HOMO = -0.328  LUMO =  1.508

 0.59003 = (-0.32773 + 1.50780)/2.0
 sum -  nocc_ = 1.01546045
 On Iteration in Bisection 0
 a: 1.01546  b:-0.50000

 0.13115 = (-0.32773 + 0.59003)/2.0
 sum -  nocc_ = 1.00000000
 On Iteration in Bisection 1
 a: 1.00000  b:-0.50000

 -0.09829 = (-0.32773 + 0.13115)/2.0
 sum -  nocc_ = 1.00000000
 On Iteration in Bisection 2
 a: 1.00000  b:-0.50000

 -0.21301 = (-0.32773 + -0.09829)/2.0
 sum -  nocc_ = 0.00000000
 ef = -0.21301 sum = 1.00000 

 Iter: 45  T:      100.000  val:-0.213013  sumni 0.00000
 ne = 1.0000

 iter:46  failiter:46  energy:     -1.015472076272  total:     -0.832997176759  error:     -0.000018189116
 In Bisection function HOMO = -0.328  LUMO =  1.505

 0.58849 = (-0.32776 + 1.50474)/2.0
 sum -  nocc_ = 1.00000327
 On Iteration in Bisection 0
 a: 1.00000  b:-0.50000

 0.13037 = (-0.32776 + 0.58849)/2.0
 sum -  nocc_ = 1.00000000
 On Iteration in Bisection 1
 a: 1.00000  b:-0.50000

 -0.09869 = (-0.32776 + 0.13037)/2.0
 sum -  nocc_ = 1.00000000
 On Iteration in Bisection 2
 a: 1.00000  b:-0.50000

 -0.21323 = (-0.32776 + -0.09869)/2.0
 sum -  nocc_ = 0.00000000
 ef = -0.21323 sum = 1.00000 

 Iter: 46  T:      100.000  val:-0.213226  sumni 0.00000
 ne = 1.0000

 iter:47  failiter:47  energy:     -1.015487250153  total:     -0.833012350639  error:     -0.000015173881
 In Bisection function HOMO = -0.328  LUMO =  1.502

 0.58710 = (-0.32778 + 1.50197)/2.0
 sum -  nocc_ = 1.00000000
 On Iteration in Bisection 0
 a: 1.00000  b:-0.50000

 0.12966 = (-0.32778 + 0.58710)/2.0
 sum -  nocc_ = 1.00000000
 On Iteration in Bisection 1
 a: 1.00000  b:-0.50000

 -0.09906 = (-0.32778 + 0.12966)/2.0
 sum -  nocc_ = 1.00000000
 On Iteration in Bisection 2
 a: 1.00000  b:-0.50000

 -0.21342 = (-0.32778 + -0.09906)/2.0
 sum -  nocc_ = 0.00000000
 ef = -0.21342 sum = 1.00000 

 Iter: 47  T:      100.000  val:-0.213417  sumni 0.00000
 ne = 1.0000

 iter:48  failiter:48  energy:     -1.015499888229  total:     -0.833024988715  error:     -0.000012638076
 In Bisection function HOMO = -0.328  LUMO =  1.499

 0.58584 = (-0.32779 + 1.49946)/2.0
 sum -  nocc_ = 1.00000000
 On Iteration in Bisection 0
 a: 1.00000  b:-0.50000

 0.12902 = (-0.32779 + 0.58584)/2.0
 sum -  nocc_ = 1.00000000
 On Iteration in Bisection 1
 a: 1.00000  b:-0.50000

 -0.09939 = (-0.32779 + 0.12902)/2.0
 sum -  nocc_ = 1.00000000
 On Iteration in Bisection 2
 a: 1.00000  b:-0.50000

 -0.21359 = (-0.32779 + -0.09939)/2.0
 sum -  nocc_ = 0.00000000
 ef = -0.21359 sum = 1.00000 

 Iter: 48  T:      100.000  val:-0.213589  sumni 0.00000
 ne = 1.0000

 iter:49  failiter:49  energy:     -1.015510400073  total:     -0.833035500559  error:     -0.000010511844
 In Bisection function HOMO = -0.328  LUMO =  1.497

 0.58470 = (-0.32781 + 1.49720)/2.0
 sum -  nocc_ = 1.00000000
 On Iteration in Bisection 0
 a: 1.00000  b:-0.50000

 0.12845 = (-0.32781 + 0.58470)/2.0
 sum -  nocc_ = 1.00000000
 On Iteration in Bisection 1
 a: 1.00000  b:-0.50000

 -0.09968 = (-0.32781 + 0.12845)/2.0
 sum -  nocc_ = 1.00000000
 On Iteration in Bisection 2
 a: 1.00000  b:-0.50000

 -0.21374 = (-0.32781 + -0.09968)/2.0
 sum -  nocc_ = 0.00000000
 ef = -0.21374 sum = 1.00000 

 Iter: 49  T:      100.000  val:-0.213743  sumni 0.00000
 ne = 1.0000

 iter:50  failiter:50  energy:     -1.015519133554  total:     -0.833044234040  error:     -0.000008733480
 In Bisection function HOMO = -0.328  LUMO =  1.495

 0.58367 = (-0.32782 + 1.49516)/2.0
 sum -  nocc_ = 1.00000000
 On Iteration in Bisection 0
 a: 1.00000  b:-0.50000

 0.12793 = (-0.32782 + 0.58367)/2.0
 sum -  nocc_ = 1.00000000
 On Iteration in Bisection 1
 a: 1.00000  b:-0.50000

 -0.09995 = (-0.32782 + 0.12793)/2.0
 sum -  nocc_ = 1.00000000
 On Iteration in Bisection 2
 a: 1.00000  b:-0.50000

 -0.21388 = (-0.32782 + -0.09995)/2.0
 sum -  nocc_ = 0.00000000
 ef = -0.21388 sum = 1.00000 

 Iter: 50  T:      100.000  val:-0.213881  sumni 0.00000
 ne = 1.0000

 iter:51  failiter:51  energy:     -1.015526382715  total:     -0.833051483201  error:     -0.000007249162
 In Bisection function HOMO = -0.328  LUMO =  1.493

 0.58275 = (-0.32783 + 1.49332)/2.0
 sum -  nocc_ = 1.00000000
 On Iteration in Bisection 0
 a: 1.00000  b:-0.50000

 0.12746 = (-0.32783 + 0.58275)/2.0
 sum -  nocc_ = 1.00000000
 On Iteration in Bisection 1
 a: 1.00000  b:-0.50000

 -0.10018 = (-0.32783 + 0.12746)/2.0
 sum -  nocc_ = 1.00000000
 On Iteration in Bisection 2
 a: 1.00000  b:-0.50000

 -0.21400 = (-0.32783 + -0.10018)/2.0
 sum -  nocc_ = 0.00000000
 ef = -0.21400 sum = 1.00000 

 Iter: 51  T:      100.000  val:-0.214005  sumni 0.00000
 ne = 1.0000

 iter:52  failiter:52  energy:     -1.015532395126  total:     -0.833057495613  error:     -0.000006012411
 In Bisection function HOMO = -0.328  LUMO =  1.492

 0.58192 = (-0.32783 + 1.49167)/2.0
 sum -  nocc_ = 1.00000000
 On Iteration in Bisection 0
 a: 1.00000  b:-0.50000

 0.12704 = (-0.32783 + 0.58192)/2.0
 sum -  nocc_ = 1.00000000
 On Iteration in Bisection 1
 a: 1.00000  b:-0.50000

 -0.10040 = (-0.32783 + 0.12704)/2.0
 sum -  nocc_ = 1.00000000
 On Iteration in Bisection 2
 a: 1.00000  b:-0.50000

 -0.21411 = (-0.32783 + -0.10040)/2.0
 sum -  nocc_ = 0.00000000
 ef = -0.21411 sum = 1.00000 

 Iter: 52  T:      100.000  val:-0.214115  sumni 0.00000
 ne = 1.0000

 iter:53  failiter:53  energy:     -1.015537378544  total:     -0.833062479031  error:     -0.000004983418
 In Bisection function HOMO = -0.328  LUMO =  1.490

 0.58118 = (-0.32784 + 1.49020)/2.0
 sum -  nocc_ = 1.00000000
 On Iteration in Bisection 0
 a: 1.00000  b:-0.50000

 0.12667 = (-0.32784 + 0.58118)/2.0
 sum -  nocc_ = 1.00000000
 On Iteration in Bisection 1
 a: 1.00000  b:-0.50000

 -0.10059 = (-0.32784 + 0.12667)/2.0
 sum -  nocc_ = 1.00000000
 On Iteration in Bisection 2
 a: 1.00000  b:-0.50000

 -0.21421 = (-0.32784 + -0.10059)/2.0
 sum -  nocc_ = 0.00000000
 ef = -0.21421 sum = 1.00000 

 Iter: 53  T:      100.000  val:-0.214213  sumni 0.00000
 ne = 1.0000

 iter:54  failiter:54  energy:     -1.015541506848  total:     -0.833066607334  error:     -0.000004128303
 In Bisection function HOMO = -0.328  LUMO =  1.489

 0.58052 = (-0.32785 + 1.48888)/2.0
 sum -  nocc_ = 1.00000000
 On Iteration in Bisection 0
 a: 1.00000  b:-0.50000

 0.12634 = (-0.32785 + 0.58052)/2.0
 sum -  nocc_ = 1.00000000
 On Iteration in Bisection 1
 a: 1.00000  b:-0.50000

 -0.10075 = (-0.32785 + 0.12634)/2.0
 sum -  nocc_ = 1.00000000
 On Iteration in Bisection 2
 a: 1.00000  b:-0.50000

 -0.21430 = (-0.32785 + -0.10075)/2.0
 sum -  nocc_ = 0.00000000
 ef = -0.21430 sum = 1.00000 

 Iter: 54  T:      100.000  val:-0.214300  sumni 0.00000
 ne = 1.0000

 iter:55  failiter:55  energy:     -1.015544925237  total:     -0.833070025723  error:     -0.000003418389
 In Bisection function HOMO = -0.328  LUMO =  1.488

 0.57993 = (-0.32785 + 1.48771)/2.0
 sum -  nocc_ = 1.00000000
 On Iteration in Bisection 0
 a: 1.00000  b:-0.50000

 0.12604 = (-0.32785 + 0.57993)/2.0
 sum -  nocc_ = 1.00000000
 On Iteration in Bisection 1
 a: 1.00000  b:-0.50000

 -0.10091 = (-0.32785 + 0.12604)/2.0
 sum -  nocc_ = 1.00000000
 On Iteration in Bisection 2
 a: 1.00000  b:-0.50000

 -0.21438 = (-0.32785 + -0.10091)/2.0
 sum -  nocc_ = 0.00000000
 ef = -0.21438 sum = 1.00000 

 Iter: 55  T:      100.000  val:-0.214378  sumni 0.00000
 ne = 1.0000

 iter:56  failiter:56  energy:     -1.015547754739  total:     -0.833072855225  error:     -0.000002829503
 In Bisection function HOMO = -0.328  LUMO =  1.487

 0.57941 = (-0.32785 + 1.48667)/2.0
 sum -  nocc_ = 1.00000000
 On Iteration in Bisection 0
 a: 1.00000  b:-0.50000

 0.12578 = (-0.32785 + 0.57941)/2.0
 sum -  nocc_ = 1.00000000
 On Iteration in Bisection 1
 a: 1.00000  b:-0.50000

 -0.10104 = (-0.32785 + 0.12578)/2.0
 sum -  nocc_ = 1.00000000
 On Iteration in Bisection 2
 a: 1.00000  b:-0.50000

 -0.21445 = (-0.32785 + -0.10104)/2.0
 sum -  nocc_ = 0.00000000
 ef = -0.21445 sum = 1.00000 

 Iter: 56  T:      100.000  val:-0.214446  sumni 0.00000
 ne = 1.0000

 iter:57  failiter:57  energy:     -1.015550096083  total:     -0.833075196569  error:     -0.000002341344
 In Bisection function HOMO = -0.328  LUMO =  1.486

 0.57895 = (-0.32786 + 1.48575)/2.0
 sum -  nocc_ = 1.00000000
 On Iteration in Bisection 0
 a: 1.00000  b:-0.50000

 0.12554 = (-0.32786 + 0.57895)/2.0
 sum -  nocc_ = 1.00000000
 On Iteration in Bisection 1
 a: 1.00000  b:-0.50000

 -0.10116 = (-0.32786 + 0.12554)/2.0
 sum -  nocc_ = 1.00000000
 On Iteration in Bisection 2
 a: 1.00000  b:-0.50000

 -0.21451 = (-0.32786 + -0.10116)/2.0
 sum -  nocc_ = 0.00000000
 ef = -0.21451 sum = 1.00000 

 Iter: 57  T:      100.000  val:-0.214506  sumni 0.00000
 ne = 1.0000

 iter:58  failiter:58  energy:     -1.015552032994  total:     -0.833077133480  error:     -0.000001936911
 In Bisection function HOMO = -0.328  LUMO =  1.485

 0.57854 = (-0.32786 + 1.48494)/2.0
 sum -  nocc_ = 1.00000000
 On Iteration in Bisection 0
 a: 1.00000  b:-0.50000

 0.12534 = (-0.32786 + 0.57854)/2.0
 sum -  nocc_ = 1.00000000
 On Iteration in Bisection 1
 a: 1.00000  b:-0.50000

 -0.10126 = (-0.32786 + 0.12534)/2.0
 sum -  nocc_ = 1.00000000
 On Iteration in Bisection 2
 a: 1.00000  b:-0.50000

 -0.21456 = (-0.32786 + -0.10126)/2.0
 sum -  nocc_ = 0.00000000
 ef = -0.21456 sum = 1.00000 

 Iter: 58  T:      100.000  val:-0.214559  sumni 0.00000
 ne = 1.0000

 iter:59  failiter:59  energy:     -1.015553634993  total:     -0.833078735480  error:     -0.000001602000
 In Bisection function HOMO = -0.328  LUMO =  1.484

 0.57819 = (-0.32786 + 1.48423)/2.0
 sum -  nocc_ = 1.00000000
 On Iteration in Bisection 0
 a: 1.00000  b:-0.50000

 0.12516 = (-0.32786 + 0.57819)/2.0
 sum -  nocc_ = 1.00000000
 On Iteration in Bisection 1
 a: 1.00000  b:-0.50000

 -0.10135 = (-0.32786 + 0.12516)/2.0
 sum -  nocc_ = 1.00000000
 On Iteration in Bisection 2
 a: 1.00000  b:-0.50000

 -0.21461 = (-0.32786 + -0.10135)/2.0
 sum -  nocc_ = 0.00000000
 ef = -0.21461 sum = 1.00000 

 Iter: 59  T:      100.000  val:-0.214605  sumni 0.00000
 ne = 1.0000

 iter:60  failiter:60  energy:     -1.015554959761  total:     -0.833080060247  error:     -0.000001324767
 In Bisection function HOMO = -0.328  LUMO =  1.484

 0.57788 = (-0.32786 + 1.48361)/2.0
 sum -  nocc_ = 1.00000000
 On Iteration in Bisection 0
 a: 1.00000  b:-0.50000

 0.12501 = (-0.32786 + 0.57788)/2.0
 sum -  nocc_ = 1.00000000
 On Iteration in Bisection 1
 a: 1.00000  b:-0.50000

 -0.10143 = (-0.32786 + 0.12501)/2.0
 sum -  nocc_ = 1.00000000
 On Iteration in Bisection 2
 a: 1.00000  b:-0.50000

 -0.21465 = (-0.32786 + -0.10143)/2.0
 sum -  nocc_ = 0.00000000
 ef = -0.21465 sum = 1.00000 

 Iter: 60  T:      100.000  val:-0.214646  sumni 0.00000
 ne = 1.0000

 iter:61  failiter:61  energy:     -1.015556055113  total:     -0.833081155599  error:     -0.000001095353
 In Bisection function HOMO = -0.328  LUMO =  1.483

 0.57761 = (-0.32786 + 1.48308)/2.0
 sum -  nocc_ = 1.00000000
 On Iteration in Bisection 0
 a: 1.00000  b:-0.50000

 0.12487 = (-0.32786 + 0.57761)/2.0
 sum -  nocc_ = 1.00000000
 On Iteration in Bisection 1
 a: 1.00000  b:-0.50000

 -0.10150 = (-0.32786 + 0.12487)/2.0
 sum -  nocc_ = 1.00000000
 On Iteration in Bisection 2
 a: 1.00000  b:-0.50000

 -0.21468 = (-0.32786 + -0.10150)/2.0
 sum -  nocc_ = 0.00000000
 ef = -0.21468 sum = 1.00000 

 Iter: 61  T:      100.000  val:-0.214680  sumni 0.00000
 ne = 1.0000

 iter:62  failiter:62  energy:     -1.015556960671  total:     -0.833082061158  error:     -0.000000905558
 In Bisection function HOMO = -0.328  LUMO =  1.483

 0.57737 = (-0.32787 + 1.48261)/2.0
 sum -  nocc_ = 1.00000000
 On Iteration in Bisection 0
 a: 1.00000  b:-0.50000

 0.12475 = (-0.32787 + 0.57737)/2.0
 sum -  nocc_ = 1.00000000
 On Iteration in Bisection 1
 a: 1.00000  b:-0.50000

 -0.10156 = (-0.32787 + 0.12475)/2.0
 sum -  nocc_ = 1.00000000
 On Iteration in Bisection 2
 a: 1.00000  b:-0.50000

 -0.21471 = (-0.32787 + -0.10156)/2.0
 sum -  nocc_ = 0.00000000
 ef = -0.21471 sum = 1.00000 

 Iter: 62  T:      100.000  val:-0.214711  sumni 0.00000
 ne = 1.0000

 iter:63  failiter:63  energy:     -1.015557709248  total:     -0.833082809734  error:     -0.000000748576
 In Bisection function HOMO = -0.328  LUMO =  1.482

 0.57717 = (-0.32787 + 1.48221)/2.0
 sum -  nocc_ = 1.00000000
 On Iteration in Bisection 0
 a: 1.00000  b:-0.50000

 0.12465 = (-0.32787 + 0.57717)/2.0
 sum -  nocc_ = 1.00000000
 On Iteration in Bisection 1
 a: 1.00000  b:-0.50000

 -0.10161 = (-0.32787 + 0.12465)/2.0
 sum -  nocc_ = 1.00000000
 On Iteration in Bisection 2
 a: 1.00000  b:-0.50000

 -0.21474 = (-0.32787 + -0.10161)/2.0
 sum -  nocc_ = 0.00000000
 ef = -0.21474 sum = 1.00000 

 Iter: 63  T:      100.000  val:-0.214736  sumni 0.00000
 ne = 1.0000

 iter:64  failiter:64  energy:     -1.015558328005  total:     -0.833083428491  error:     -0.000000618757
 In Bisection function HOMO = -0.328  LUMO =  1.482

 0.57700 = (-0.32787 + 1.48187)/2.0
 sum -  nocc_ = 1.00000000
 On Iteration in Bisection 0
 a: 1.00000  b:-0.50000

 0.12457 = (-0.32787 + 0.57700)/2.0
 sum -  nocc_ = 1.00000000
 On Iteration in Bisection 1
 a: 1.00000  b:-0.50000

 -0.10165 = (-0.32787 + 0.12457)/2.0
 sum -  nocc_ = 1.00000000
 On Iteration in Bisection 2
 a: 1.00000  b:-0.50000

 -0.21476 = (-0.32787 + -0.10165)/2.0
 sum -  nocc_ = 0.00000000
 ef = -0.21476 sum = 1.00000 

 Iter: 64  T:      100.000  val:-0.214759  sumni 0.00000
 ne = 1.0000

 iter:65  failiter:65  energy:     -1.015558839421  total:     -0.833083939908  error:     -0.000000511417
 In Bisection function HOMO = -0.328  LUMO =  1.482

 0.57685 = (-0.32787 + 1.48158)/2.0
 sum -  nocc_ = 1.00000000
 On Iteration in Bisection 0
 a: 1.00000  b:-0.50000

 0.12449 = (-0.32787 + 0.57685)/2.0
 sum -  nocc_ = 1.00000000
 On Iteration in Bisection 1
 a: 1.00000  b:-0.50000

 -0.10169 = (-0.32787 + 0.12449)/2.0
 sum -  nocc_ = 1.00000000
 On Iteration in Bisection 2
 a: 1.00000  b:-0.50000

 -0.21478 = (-0.32787 + -0.10169)/2.0
 sum -  nocc_ = 0.00000000
 ef = -0.21478 sum = 1.00000 

 Iter: 65  T:      100.000  val:-0.214777  sumni 0.00000
 ne = 1.0000

 iter:66  failiter:66  energy:     -1.015559262095  total:     -0.833084362582  error:     -0.000000422674
 In Bisection function HOMO = -0.328  LUMO =  1.481

 0.57673 = (-0.32787 + 1.48133)/2.0
 sum -  nocc_ = 1.00000000
 On Iteration in Bisection 0
 a: 1.00000  b:-0.50000

 0.12443 = (-0.32787 + 0.57673)/2.0
 sum -  nocc_ = 1.00000000
 On Iteration in Bisection 1
 a: 1.00000  b:-0.50000

 -0.10172 = (-0.32787 + 0.12443)/2.0
 sum -  nocc_ = 1.00000000
 On Iteration in Bisection 2
 a: 1.00000  b:-0.50000

 -0.21479 = (-0.32787 + -0.10172)/2.0
 sum -  nocc_ = 0.00000000
 ef = -0.21479 sum = 1.00000 

 Iter: 66  T:      100.000  val:-0.214794  sumni 0.00000
 ne = 1.0000

 iter:67  failiter:67  energy:     -1.015559611409  total:     -0.833084711896  error:     -0.000000349314
 In Bisection function HOMO = -0.328  LUMO =  1.481

 0.57662 = (-0.32787 + 1.48112)/2.0
 sum -  nocc_ = 1.00000000
 On Iteration in Bisection 0
 a: 1.00000  b:-0.50000

 0.12438 = (-0.32787 + 0.57662)/2.0
 sum -  nocc_ = 1.00000000
 On Iteration in Bisection 1
 a: 1.00000  b:-0.50000

 -0.10175 = (-0.32787 + 0.12438)/2.0
 sum -  nocc_ = 1.00000000
 On Iteration in Bisection 2
 a: 1.00000  b:-0.50000

 -0.21481 = (-0.32787 + -0.10175)/2.0
 sum -  nocc_ = 0.00000000
 ef = -0.21481 sum = 1.00000 

 Iter: 67  T:      100.000  val:-0.214807  sumni 0.00000
 ne = 1.0000

 iter:68  failiter:68  energy:     -1.015559900085  total:     -0.833085000571  error:     -0.000000288676
 In Bisection function HOMO = -0.328  LUMO =  1.481

 0.57654 = (-0.32787 + 1.48094)/2.0
 sum -  nocc_ = 1.00000000
 On Iteration in Bisection 0
 a: 1.00000  b:-0.50000

 0.12433 = (-0.32787 + 0.57654)/2.0
 sum -  nocc_ = 1.00000000
 On Iteration in Bisection 1
 a: 1.00000  b:-0.50000

 -0.10177 = (-0.32787 + 0.12433)/2.0
 sum -  nocc_ = 1.00000000
 On Iteration in Bisection 2
 a: 1.00000  b:-0.50000

 -0.21482 = (-0.32787 + -0.10177)/2.0
 sum -  nocc_ = 0.00000000
 ef = -0.21482 sum = 1.00000 

 Iter: 68  T:      100.000  val:-0.214819  sumni 0.00000
 ne = 1.0000

 iter:69  failiter:69  energy:     -1.015560138641  total:     -0.833085239127  error:     -0.000000238556
 In Bisection function HOMO = -0.328  LUMO =  1.481

 0.57646 = (-0.32787 + 1.48079)/2.0
 sum -  nocc_ = 1.00000000
 On Iteration in Bisection 0
 a: 1.00000  b:-0.50000

 0.12430 = (-0.32787 + 0.57646)/2.0
 sum -  nocc_ = 1.00000000
 On Iteration in Bisection 1
 a: 1.00000  b:-0.50000

 -0.10179 = (-0.32787 + 0.12430)/2.0
 sum -  nocc_ = 1.00000000
 On Iteration in Bisection 2
 a: 1.00000  b:-0.50000

 -0.21483 = (-0.32787 + -0.10179)/2.0
 sum -  nocc_ = 0.00000000
 ef = -0.21483 sum = 1.00000 

 Iter: 69  T:      100.000  val:-0.214828  sumni 0.00000
 ne = 1.0000

 iter:70  failiter:70  energy:     -1.015560335774  total:     -0.833085436260  error:     -0.000000197133
 In Bisection function HOMO = -0.328  LUMO =  1.481

 0.57640 = (-0.32787 + 1.48066)/2.0
 sum -  nocc_ = 1.00000000
 On Iteration in Bisection 0
 a: 1.00000  b:-0.50000

 0.12426 = (-0.32787 + 0.57640)/2.0
 sum -  nocc_ = 1.00000000
 On Iteration in Bisection 1
 a: 1.00000  b:-0.50000

 -0.10180 = (-0.32787 + 0.12426)/2.0
 sum -  nocc_ = 1.00000000
 On Iteration in Bisection 2
 a: 1.00000  b:-0.50000

 -0.21484 = (-0.32787 + -0.10180)/2.0
 sum -  nocc_ = 0.00000000
 ef = -0.21484 sum = 1.00000 

 Iter: 70  T:      100.000  val:-0.214836  sumni 0.00000
 ne = 1.0000

 iter:71  failiter:71  energy:     -1.015560498673  total:     -0.833085599159  error:     -0.000000162899
[...]
 On Iteration in Bisection 2
 a: 1.00000  b:-0.50000

 -0.21488 = (-0.32787 + -0.10188)/2.0
 sum -  nocc_ = 0.00000000
 ef = -0.21488 sum = 1.00000 

 Iter: 101  T:      100.000  val:-0.214876  sumni 0.00000
 ne = 1.0000

 iter:102  failiter:102  energy:     -1.015561271479  total:     -0.833086371965  error:     -0.000000000439
 In Bisection function HOMO = -0.328  LUMO =  1.480

 0.57608 = (-0.32787 + 1.48004)/2.0
 sum -  nocc_ = 1.00000000
 On Iteration in Bisection 0
 a: 1.00000  b:-0.50000

 0.12411 = (-0.32787 + 0.57608)/2.0
 sum -  nocc_ = 1.00000000
 On Iteration in Bisection 1
 a: 1.00000  b:-0.50000

 -0.10188 = (-0.32787 + 0.12411)/2.0
 sum -  nocc_ = 1.00000000
 On Iteration in Bisection 2
 a: 1.00000  b:-0.50000

 -0.21488 = (-0.32787 + -0.10188)/2.0
 sum -  nocc_ = 0.00000000
 ef = -0.21488 sum = 1.00000 

 Iter: 102  T:      100.000  val:-0.214876  sumni 0.00000
 ne = 1.0000

 iter:103  failiter:103  energy:     -1.015561271842  total:     -0.833086372328  error:     -0.000000000363
 In Bisection function HOMO = -0.328  LUMO =  1.480

 0.57608 = (-0.32787 + 1.48004)/2.0
 sum -  nocc_ = 1.00000000
 On Iteration in Bisection 0
 a: 1.00000  b:-0.50000

 0.12411 = (-0.32787 + 0.57608)/2.0
 sum -  nocc_ = 1.00000000
 On Iteration in Bisection 1
 a: 1.00000  b:-0.50000

 -0.10188 = (-0.32787 + 0.12411)/2.0
 sum -  nocc_ = 1.00000000
 On Iteration in Bisection 2
 a: 1.00000  b:-0.50000

 -0.21488 = (-0.32787 + -0.10188)/2.0
 sum -  nocc_ = 0.00000000
 ef = -0.21488 sum = 1.00000 

 Iter: 103  T:      100.000  val:-0.214876  sumni 0.00000
 ne = 1.0000

 iter:104  failiter:104  energy:     -1.015561272142  total:     -0.833086372628  error:     -0.000000000300
 In Bisection function HOMO = -0.328  LUMO =  1.480

 0.57608 = (-0.32787 + 1.48004)/2.0
 sum -  nocc_ = 1.00000000
 On Iteration in Bisection 0
 a: 1.00000  b:-0.50000

 0.12411 = (-0.32787 + 0.57608)/2.0
 sum -  nocc_ = 1.00000000
 On Iteration in Bisection 1
 a: 1.00000  b:-0.50000

 -0.10188 = (-0.32787 + 0.12411)/2.0
 sum -  nocc_ = 1.00000000
 On Iteration in Bisection 2
 a: 1.00000  b:-0.50000

 -0.21488 = (-0.32787 + -0.10188)/2.0
 sum -  nocc_ = 0.00000000
 ef = -0.21488 sum = 1.00000 

 Iter: 104  T:      100.000  val:-0.214876  sumni 0.00000
 ne = 1.0000

 iter:105  failiter:105  energy:     -1.015561272389  total:     -0.833086372876  error:     -0.000000000248
 In Bisection function HOMO = -0.328  LUMO =  1.480

 0.57608 = (-0.32787 + 1.48004)/2.0
 sum -  nocc_ = 1.00000000
 On Iteration in Bisection 0
 a: 1.00000  b:-0.50000

 0.12411 = (-0.32787 + 0.57608)/2.0
 sum -  nocc_ = 1.00000000
 On Iteration in Bisection 1
 a: 1.00000  b:-0.50000

 -0.10188 = (-0.32787 + 0.12411)/2.0
 sum -  nocc_ = 1.00000000
 On Iteration in Bisection 2
 a: 1.00000  b:-0.50000

 -0.21488 = (-0.32787 + -0.10188)/2.0
 sum -  nocc_ = 0.00000000
 ef = -0.21488 sum = 1.00000 

 Iter: 105  T:      100.000  val:-0.214876  sumni 0.00000
 ne = 1.0000

 iter:106  failiter:106  energy:     -1.015561272594  total:     -0.833086373080  error:     -0.000000000205
 In Bisection function HOMO = -0.328  LUMO =  1.480

 0.57608 = (-0.32787 + 1.48004)/2.0
 sum -  nocc_ = 1.00000000
 On Iteration in Bisection 0
 a: 1.00000  b:-0.50000

 0.12411 = (-0.32787 + 0.57608)/2.0
 sum -  nocc_ = 1.00000000
 On Iteration in Bisection 1
 a: 1.00000  b:-0.50000

 -0.10188 = (-0.32787 + 0.12411)/2.0
 sum -  nocc_ = 1.00000000
 On Iteration in Bisection 2
 a: 1.00000  b:-0.50000

 -0.21488 = (-0.32787 + -0.10188)/2.0
 sum -  nocc_ = 0.00000000
 ef = -0.21488 sum = 1.00000 

 Iter: 106  T:      100.000  val:-0.214876  sumni 0.00000
 ne = 1.0000

 iter:107  failiter:107  energy:     -1.015561272763  total:     -0.833086373249  error:     -0.000000000169
 In Bisection function HOMO = -0.328  LUMO =  1.480

 0.57608 = (-0.32787 + 1.48004)/2.0
 sum -  nocc_ = 1.00000000
 On Iteration in Bisection 0
 a: 1.00000  b:-0.50000

 0.12411 = (-0.32787 + 0.57608)/2.0
 sum -  nocc_ = 1.00000000
 On Iteration in Bisection 1
 a: 1.00000  b:-0.50000

 -0.10188 = (-0.32787 + 0.12411)/2.0
 sum -  nocc_ = 1.00000000
 On Iteration in Bisection 2
 a: 1.00000  b:-0.50000

 -0.21488 = (-0.32787 + -0.10188)/2.0
 sum -  nocc_ = 0.00000000
 ef = -0.21488 sum = 1.00000 

 Iter: 107  T:      100.000  val:-0.214876  sumni 0.00000
 ne = 1.0000

 iter:108  failiter:108  energy:     -1.015561272903  total:     -0.833086373389  error:     -0.000000000140
 In Bisection function HOMO = -0.328  LUMO =  1.480

 0.57608 = (-0.32787 + 1.48004)/2.0
 sum -  nocc_ = 1.00000000
 On Iteration in Bisection 0
 a: 1.00000  b:-0.50000

 0.12411 = (-0.32787 + 0.57608)/2.0
 sum -  nocc_ = 1.00000000
 On Iteration in Bisection 1
 a: 1.00000  b:-0.50000

 -0.10188 = (-0.32787 + 0.12411)/2.0
 sum -  nocc_ = 1.00000000
 On Iteration in Bisection 2
 a: 1.00000  b:-0.50000

 -0.21488 = (-0.32787 + -0.10188)/2.0
 sum -  nocc_ = 0.00000000
 ef = -0.21488 sum = 1.00000 

 Iter: 108  T:      100.000  val:-0.214876  sumni 0.00000
 ne = 1.0000

 iter:109  failiter:109  energy:     -1.015561273019  total:     -0.833086373505  error:     -0.000000000115
 In Bisection function HOMO = -0.328  LUMO =  1.480

 0.57608 = (-0.32787 + 1.48004)/2.0
 sum -  nocc_ = 1.00000000
 On Iteration in Bisection 0
 a: 1.00000  b:-0.50000

 0.12411 = (-0.32787 + 0.57608)/2.0
 sum -  nocc_ = 1.00000000
 On Iteration in Bisection 1
 a: 1.00000  b:-0.50000

 -0.10188 = (-0.32787 + 0.12411)/2.0
 sum -  nocc_ = 1.00000000
 On Iteration in Bisection 2
 a: 1.00000  b:-0.50000

 -0.21488 = (-0.32787 + -0.10188)/2.0
 sum -  nocc_ = 0.00000000
 ef = -0.21488 sum = 1.00000 

 Iter: 109  T:      100.000  val:-0.214876  sumni 0.00000
 ne = 1.0000

 iter:110  failiter:110  energy:     -1.015561273114  total:     -0.833086373600  error:     -0.000000000095
 In Bisection function HOMO = -0.328  LUMO =  1.480

 0.57608 = (-0.32787 + 1.48004)/2.0
 sum -  nocc_ = 1.00000000
 On Iteration in Bisection 0
 a: 1.00000  b:-0.50000

 0.12411 = (-0.32787 + 0.57608)/2.0
 sum -  nocc_ = 1.00000000
 On Iteration in Bisection 1
 a: 1.00000  b:-0.50000

 -0.10188 = (-0.32787 + 0.12411)/2.0
 sum -  nocc_ = 1.00000000
 On Iteration in Bisection 2
 a: 1.00000  b:-0.50000

 -0.21488 = (-0.32787 + -0.10188)/2.0
 sum -  nocc_ = 0.00000000
 ef = -0.21488 sum = 1.00000 

 Iter: 110  T:      100.000  val:-0.214876  sumni 0.00000
 ne = 1.0000

 iter:111  failiter:111  energy:     -1.015561273193  total:     -0.833086373679  error:     -0.000000000079
 In Bisection function HOMO = -0.328  LUMO =  1.480

 0.57608 = (-0.32787 + 1.48004)/2.0
 sum -  nocc_ = 1.00000000
 On Iteration in Bisection 0
 a: 1.00000  b:-0.50000

 0.12411 = (-0.32787 + 0.57608)/2.0
 sum -  nocc_ = 1.00000000
 On Iteration in Bisection 1
 a: 1.00000  b:-0.50000

 -0.10188 = (-0.32787 + 0.12411)/2.0
 sum -  nocc_ = 1.00000000
 On Iteration in Bisection 2
 a: 1.00000  b:-0.50000

 -0.21488 = (-0.32787 + -0.10188)/2.0
 sum -  nocc_ = 0.00000000
 ef = -0.21488 sum = 1.00000 

 Iter: 111  T:      100.000  val:-0.214876  sumni 0.00000
 ne = 1.0000

 iter:112  failiter:112  energy:     -1.015561273258  total:     -0.833086373744  error:     -0.000000000065
 In Bisection function HOMO = -0.328  LUMO =  1.480

 0.57608 = (-0.32787 + 1.48004)/2.0
 sum -  nocc_ = 1.00000000
 On Iteration in Bisection 0
 a: 1.00000  b:-0.50000

 0.12411 = (-0.32787 + 0.57608)/2.0
 sum -  nocc_ = 1.00000000
 On Iteration in Bisection 1
 a: 1.00000  b:-0.50000

 -0.10188 = (-0.32787 + 0.12411)/2.0
 sum -  nocc_ = 1.00000000
 On Iteration in Bisection 2
 a: 1.00000  b:-0.50000

 -0.21488 = (-0.32787 + -0.10188)/2.0
 sum -  nocc_ = 0.00000000
 ef = -0.21488 sum = 1.00000 

 Iter: 112  T:      100.000  val:-0.214876  sumni 0.00000
 ne = 1.0000

 iter:113  failiter:113  energy:     -1.015561273312  total:     -0.833086373798  error:     -0.000000000054
 In Bisection function HOMO = -0.328  LUMO =  1.480

 0.57608 = (-0.32787 + 1.48004)/2.0
 sum -  nocc_ = 1.00000000
 On Iteration in Bisection 0
 a: 1.00000  b:-0.50000

 0.12411 = (-0.32787 + 0.57608)/2.0
 sum -  nocc_ = 1.00000000
 On Iteration in Bisection 1
 a: 1.00000  b:-0.50000

 -0.10188 = (-0.32787 + 0.12411)/2.0
 sum -  nocc_ = 1.00000000
 On Iteration in Bisection 2
 a: 1.00000  b:-0.50000

 -0.21488 = (-0.32787 + -0.10188)/2.0
 sum -  nocc_ = 0.00000000
 ef = -0.21488 sum = 1.00000 

 Iter: 113  T:      100.000  val:-0.214876  sumni 0.00000
 ne = 1.0000

 iter:114  failiter:114  energy:     -1.015561273356  total:     -0.833086373842  error:     -0.000000000044
 In Bisection function HOMO = -0.328  LUMO =  1.480

 0.57608 = (-0.32787 + 1.48004)/2.0
 sum -  nocc_ = 1.00000000
 On Iteration in Bisection 0
 a: 1.00000  b:-0.50000

 0.12411 = (-0.32787 + 0.57608)/2.0
 sum -  nocc_ = 1.00000000
 On Iteration in Bisection 1
 a: 1.00000  b:-0.50000

 -0.10188 = (-0.32787 + 0.12411)/2.0
 sum -  nocc_ = 1.00000000
 On Iteration in Bisection 2
 a: 1.00000  b:-0.50000

 -0.21488 = (-0.32787 + -0.10188)/2.0
 sum -  nocc_ = 0.00000000
 ef = -0.21488 sum = 1.00000 

 Iter: 114  T:      100.000  val:-0.214876  sumni 0.00000
 ne = 1.0000

 iter:115  failiter:115  energy:     -1.015561273393  total:     -0.833086373879  error:     -0.000000000037
 In Bisection function HOMO = -0.328  LUMO =  1.480

 0.57608 = (-0.32787 + 1.48004)/2.0
 sum -  nocc_ = 1.00000000
 On Iteration in Bisection 0
 a: 1.00000  b:-0.50000

 0.12411 = (-0.32787 + 0.57608)/2.0
 sum -  nocc_ = 1.00000000
 On Iteration in Bisection 1
 a: 1.00000  b:-0.50000

 -0.10188 = (-0.32787 + 0.12411)/2.0
 sum -  nocc_ = 1.00000000
 On Iteration in Bisection 2
 a: 1.00000  b:-0.50000

 -0.21488 = (-0.32787 + -0.10188)/2.0
 sum -  nocc_ = 0.00000000
 ef = -0.21488 sum = 1.00000 

 Iter: 115  T:      100.000  val:-0.214876  sumni 0.00000
 ne = 1.0000

 iter:116  failiter:116  energy:     -1.015561273423  total:     -0.833086373910  error:     -0.000000000030
 In Bisection function HOMO = -0.328  LUMO =  1.480

 0.57608 = (-0.32787 + 1.48004)/2.0
 sum -  nocc_ = 1.00000000
 On Iteration in Bisection 0
 a: 1.00000  b:-0.50000

 0.12411 = (-0.32787 + 0.57608)/2.0
 sum -  nocc_ = 1.00000000
 On Iteration in Bisection 1
 a: 1.00000  b:-0.50000

 -0.10188 = (-0.32787 + 0.12411)/2.0
 sum -  nocc_ = 1.00000000
 On Iteration in Bisection 2
 a: 1.00000  b:-0.50000

 -0.21488 = (-0.32787 + -0.10188)/2.0
 sum -  nocc_ = 0.00000000
 ef = -0.21488 sum = 1.00000 

 Iter: 116  T:      100.000  val:-0.214876  sumni 0.00000
 ne = 1.0000

 iter:117  failiter:117  energy:     -1.015561273448  total:     -0.833086373935  error:     -0.000000000025
 In Bisection function HOMO = -0.328  LUMO =  1.480

 0.57608 = (-0.32787 + 1.48004)/2.0
 sum -  nocc_ = 1.00000000
 On Iteration in Bisection 0
 a: 1.00000  b:-0.50000

 0.12411 = (-0.32787 + 0.57608)/2.0
 sum -  nocc_ = 1.00000000
 On Iteration in Bisection 1
 a: 1.00000  b:-0.50000

 -0.10188 = (-0.32787 + 0.12411)/2.0
 sum -  nocc_ = 1.00000000
 On Iteration in Bisection 2
 a: 1.00000  b:-0.50000

 -0.21488 = (-0.32787 + -0.10188)/2.0
 sum -  nocc_ = 0.00000000
 ef = -0.21488 sum = 1.00000 

 Iter: 117  T:      100.000  val:-0.214876  sumni 0.00000
 ne = 1.0000

 iter:118  failiter:118  energy:     -1.015561273469  total:     -0.833086373955  error:     -0.000000000021
 In Bisection function HOMO = -0.328  LUMO =  1.480

 0.57608 = (-0.32787 + 1.48004)/2.0
 sum -  nocc_ = 1.00000000
 On Iteration in Bisection 0
 a: 1.00000  b:-0.50000

 0.12411 = (-0.32787 + 0.57608)/2.0
 sum -  nocc_ = 1.00000000
 On Iteration in Bisection 1
 a: 1.00000  b:-0.50000

 -0.10188 = (-0.32787 + 0.12411)/2.0
 sum -  nocc_ = 1.00000000
 On Iteration in Bisection 2
 a: 1.00000  b:-0.50000

 -0.21488 = (-0.32787 + -0.10188)/2.0
 sum -  nocc_ = 0.00000000
 ef = -0.21488 sum = 1.00000 

 Iter: 118  T:      100.000  val:-0.214876  sumni 0.00000
 ne = 1.0000

 iter:119  failiter:119  energy:     -1.015561273486  total:     -0.833086373972  error:     -0.000000000017
 In Bisection function HOMO = -0.328  LUMO =  1.480

 0.57608 = (-0.32787 + 1.48004)/2.0
 sum -  nocc_ = 1.00000000
 On Iteration in Bisection 0
 a: 1.00000  b:-0.50000

 0.12411 = (-0.32787 + 0.57608)/2.0
 sum -  nocc_ = 1.00000000
 On Iteration in Bisection 1
 a: 1.00000  b:-0.50000

 -0.10188 = (-0.32787 + 0.12411)/2.0
 sum -  nocc_ = 1.00000000
 On Iteration in Bisection 2
 a: 1.00000  b:-0.50000

 -0.21488 = (-0.32787 + -0.10188)/2.0
 sum -  nocc_ = 0.00000000
 ef = -0.21488 sum = 1.00000 

 Iter: 119  T:      100.000  val:-0.214876  sumni 0.00000
 ne = 1.0000

 iter:120  failiter:120  energy:     -1.015561273500  total:     -0.833086373987  error:     -0.000000000014
 In Bisection function HOMO = -0.328  LUMO =  1.480

 0.57608 = (-0.32787 + 1.48004)/2.0
 sum -  nocc_ = 1.00000000
 On Iteration in Bisection 0
 a: 1.00000  b:-0.50000

 0.12411 = (-0.32787 + 0.57608)/2.0
 sum -  nocc_ = 1.00000000
 On Iteration in Bisection 1
 a: 1.00000  b:-0.50000

 -0.10188 = (-0.32787 + 0.12411)/2.0
 sum -  nocc_ = 1.00000000
 On Iteration in Bisection 2
 a: 1.00000  b:-0.50000

 -0.21488 = (-0.32787 + -0.10188)/2.0
 sum -  nocc_ = 0.00000000
 ef = -0.21488 sum = 1.00000 

 Iter: 120  T:      100.000  val:-0.214876  sumni 0.00000
 ne = 1.0000

 iter:121  failiter:121  energy:     -1.015561273512  total:     -0.833086373998  error:     -0.000000000012
 In Bisection function HOMO = -0.328  LUMO =  1.480

 0.57608 = (-0.32787 + 1.48004)/2.0
 sum -  nocc_ = 1.00000000
 On Iteration in Bisection 0
 a: 1.00000  b:-0.50000

 0.12411 = (-0.32787 + 0.57608)/2.0
 sum -  nocc_ = 1.00000000
 On Iteration in Bisection 1
 a: 1.00000  b:-0.50000

 -0.10188 = (-0.32787 + 0.12411)/2.0
 sum -  nocc_ = 1.00000000
 On Iteration in Bisection 2
 a: 1.00000  b:-0.50000

 -0.21488 = (-0.32787 + -0.10188)/2.0
 sum -  nocc_ = 0.00000000
 ef = -0.21488 sum = 1.00000 

 Iter: 121  T:      100.000  val:-0.214876  sumni 0.00000
 ne = 1.0000

 iter:122  failiter:122  energy:     -1.015561273522  total:     -0.833086374008  error:     -0.000000000010
 In Bisection function HOMO = -0.328  LUMO =  1.480

 0.57608 = (-0.32787 + 1.48004)/2.0
 sum -  nocc_ = 1.00000000
 On Iteration in Bisection 0
 a: 1.00000  b:-0.50000

 0.12411 = (-0.32787 + 0.57608)/2.0
 sum -  nocc_ = 1.00000000
 On Iteration in Bisection 1
 a: 1.00000  b:-0.50000

 -0.10188 = (-0.32787 + 0.12411)/2.0
 sum -  nocc_ = 1.00000000
 On Iteration in Bisection 2
 a: 1.00000  b:-0.50000

 -0.21488 = (-0.32787 + -0.10188)/2.0
 sum -  nocc_ = 0.00000000
 ef = -0.21488 sum = 1.00000 

 Iter: 122  T:      100.000  val:-0.214876  sumni 0.00000
 ne = 1.0000

 iter:123  failiter:123  energy:     -1.015561273530  total:     -0.833086374016  error:     -0.000000000008
 In Bisection function HOMO = -0.328  LUMO =  1.480

 0.57608 = (-0.32787 + 1.48004)/2.0
 sum -  nocc_ = 1.00000000
 On Iteration in Bisection 0
 a: 1.00000  b:-0.50000

 0.12411 = (-0.32787 + 0.57608)/2.0
 sum -  nocc_ = 1.00000000
 On Iteration in Bisection 1
 a: 1.00000  b:-0.50000

 -0.10188 = (-0.32787 + 0.12411)/2.0
 sum -  nocc_ = 1.00000000
 On Iteration in Bisection 2
 a: 1.00000  b:-0.50000

 -0.21488 = (-0.32787 + -0.10188)/2.0
 sum -  nocc_ = 0.00000000
 ef = -0.21488 sum = 1.00000 

 Iter: 123  T:      100.000  val:-0.214876  sumni 0.00000
 ne = 1.0000

 iter:124  failiter:124  energy:     -1.015561273536  total:     -0.833086374023  error:     -0.000000000007
 In Bisection function HOMO = -0.328  LUMO =  1.480

 0.57608 = (-0.32787 + 1.48004)/2.0
 sum -  nocc_ = 1.00000000
 On Iteration in Bisection 0
 a: 1.00000  b:-0.50000

 0.12411 = (-0.32787 + 0.57608)/2.0
 sum -  nocc_ = 1.00000000
 On Iteration in Bisection 1
 a: 1.00000  b:-0.50000

 -0.10188 = (-0.32787 + 0.12411)/2.0
 sum -  nocc_ = 1.00000000
 On Iteration in Bisection 2
 a: 1.00000  b:-0.50000

 -0.21488 = (-0.32787 + -0.10188)/2.0
 sum -  nocc_ = 0.00000000
 ef = -0.21488 sum = 1.00000 

 Iter: 124  T:      100.000  val:-0.214876  sumni 0.00000
 ne = 1.0000

 iter:125  failiter:125  energy:     -1.015561273542  total:     -0.833086374028  error:     -0.000000000005
 In Bisection function HOMO = -0.328  LUMO =  1.480

 0.57608 = (-0.32787 + 1.48004)/2.0
 sum -  nocc_ = 1.00000000
 On Iteration in Bisection 0
 a: 1.00000  b:-0.50000

 0.12411 = (-0.32787 + 0.57608)/2.0
 sum -  nocc_ = 1.00000000
 On Iteration in Bisection 1
 a: 1.00000  b:-0.50000

 -0.10188 = (-0.32787 + 0.12411)/2.0
 sum -  nocc_ = 1.00000000
 On Iteration in Bisection 2
 a: 1.00000  b:-0.50000

 -0.21488 = (-0.32787 + -0.10188)/2.0
 sum -  nocc_ = 0.00000000
 ef = -0.21488 sum = 1.00000 

 Iter: 125  T:      100.000  val:-0.214876  sumni 0.00000
 ne = 1.0000

 iter:126  failiter:126  energy:     -1.015561273546  total:     -0.833086374032  error:     -0.000000000005
 In Bisection function HOMO = -0.328  LUMO =  1.480

 0.57608 = (-0.32787 + 1.48004)/2.0
 sum -  nocc_ = 1.00000000
 On Iteration in Bisection 0
 a: 1.00000  b:-0.50000

 0.12411 = (-0.32787 + 0.57608)/2.0
 sum -  nocc_ = 1.00000000
 On Iteration in Bisection 1
 a: 1.00000  b:-0.50000

 -0.10188 = (-0.32787 + 0.12411)/2.0
 sum -  nocc_ = 1.00000000
 On Iteration in Bisection 2
 a: 1.00000  b:-0.50000

 -0.21488 = (-0.32787 + -0.10188)/2.0
 sum -  nocc_ = 0.00000000
 ef = -0.21488 sum = 1.00000 

 Iter: 126  T:      100.000  val:-0.214876  sumni 0.00000
 ne = 1.0000

 iter:127  failiter:127  energy:     -1.015561273550  total:     -0.833086374036  error:     -0.000000000004
 In Bisection function HOMO = -0.328  LUMO =  1.480

 0.57608 = (-0.32787 + 1.48004)/2.0
 sum -  nocc_ = 1.00000000
 On Iteration in Bisection 0
 a: 1.00000  b:-0.50000

 0.12411 = (-0.32787 + 0.57608)/2.0
 sum -  nocc_ = 1.00000000
 On Iteration in Bisection 1
 a: 1.00000  b:-0.50000

 -0.10188 = (-0.32787 + 0.12411)/2.0
 sum -  nocc_ = 1.00000000
 On Iteration in Bisection 2
 a: 1.00000  b:-0.50000

 -0.21488 = (-0.32787 + -0.10188)/2.0
 sum -  nocc_ = 0.00000000
 ef = -0.21488 sum = 1.00000 

 Iter: 127  T:      100.000  val:-0.214876  sumni 0.00000
 ne = 1.0000

 iter:128  failiter:128  energy:     -1.015561273553  total:     -0.833086374039  error:     -0.000000000003
 In Bisection function HOMO = -0.328  LUMO =  1.480

 0.57608 = (-0.32787 + 1.48004)/2.0
 sum -  nocc_ = 1.00000000
 On Iteration in Bisection 0
 a: 1.00000  b:-0.50000

 0.12411 = (-0.32787 + 0.57608)/2.0
 sum -  nocc_ = 1.00000000
 On Iteration in Bisection 1
 a: 1.00000  b:-0.50000

 -0.10188 = (-0.32787 + 0.12411)/2.0
 sum -  nocc_ = 1.00000000
 On Iteration in Bisection 2
 a: 1.00000  b:-0.50000

 -0.21488 = (-0.32787 + -0.10188)/2.0
 sum -  nocc_ = 0.00000000
 ef = -0.21488 sum = 1.00000 

 Iter: 128  T:      100.000  val:-0.214876  sumni 0.00000
 ne = 1.0000

 iter:129  failiter:129  energy:     -1.015561273556  total:     -0.833086374042  error:     -0.000000000003
 In Bisection function HOMO = -0.328  LUMO =  1.480

 0.57608 = (-0.32787 + 1.48004)/2.0
 sum -  nocc_ = 1.00000000
 On Iteration in Bisection 0
 a: 1.00000  b:-0.50000

 0.12411 = (-0.32787 + 0.57608)/2.0
 sum -  nocc_ = 1.00000000
 On Iteration in Bisection 1
 a: 1.00000  b:-0.50000

 -0.10188 = (-0.32787 + 0.12411)/2.0
 sum -  nocc_ = 1.00000000
 On Iteration in Bisection 2
 a: 1.00000  b:-0.50000

 -0.21488 = (-0.32787 + -0.10188)/2.0
 sum -  nocc_ = 0.00000000
 ef = -0.21488 sum = 1.00000 

 Iter: 129  T:      100.000  val:-0.214876  sumni 0.00000
 ne = 1.0000

 iter:130  failiter:130  energy:     -1.015561273558  total:     -0.833086374044  error:     -0.000000000002
 CALCULATION FAILED 

 FD_dis[0] = 1.00000000 with -0.327871 eig value
 FD_dis[1] = 0.00000000 with -0.110594 eig value
 FD_dis[2] = 0.00000000 with 0.598521 eig value
 FD_dis[3] = 0.00000000 with 0.677956 eig value
 FD_dis[4] = 0.00000000 with 1.461949 eig value
 FD_dis[5] = 0.00000000 with 1.461949 eig value
 FD_dis[6] = 0.00000000 with 1.464249 eig value
 FD_dis[7] = 0.00000000 with 1.464855 eig value
 FD_dis[8] = 0.00000000 with 1.464855 eig value
 FD_dis[9] = 0.00000000 with 1.480039 eig value
*** PSI4 exiting successfully. Buy a developer a beer!
