    -----------------------------------------------------------------------
          PSI4: An Open-Source Ab Initio Electronic Structure Package
                              PSI 4.0 Driver

               Git: Rev {master} 556e8139d3cfa1f96ccffe2cdf22cc56a185d2b2

    J. M. Turney, A. C. Simmonett, R. M. Parrish, E. G. Hohenstein,
    F. A. Evangelista, J. T. Fermann, B. J. Mintz, L. A. Burns, J. J. Wilke,
    M. L. Abrams, N. J. Russ, M. L. Leininger, C. L. Janssen, E. T. Seidl,
    W. D. Allen, H. F. Schaefer, R. A. King, E. F. Valeev, C. D. Sherrill,
    and T. D. Crawford, WIREs Comput. Mol. Sci. 2, 556-565 (2012)
    (doi: 10.1002/wcms.93)

                         Additional Contributions by
    A. E. DePrince, M. Saitow, U. Bozkaya, A. Yu. Sokolov
    -----------------------------------------------------------------------

    Process ID:  12558
    PSI4DATADIR: /Users/kevinhannon/Programs/psi4cmake/psi4/lib
    Memory level set to 256.000 MB

  ==> Input File <==

--------------------------------------------------------------------------

# PYTHONPATH must include directory above plugin directory.
#     Define either externally or here, then import plugin.
sys.path.insert(0, '/Users/kevinhannon/Programs/Quantum_Programs/Quantum-Programs/GS/')
import scf

molecule {
0 1
O 0.00  0.00   0.00
H  0.757 0.586 0.00
H -1.757 0.586 0.00
symmetry c1
units angstrom
}


set {
  basis cc-pvdz
  reference rhf
  scf_type  pk
}

set scf {
  print 1
  DO_FTHF true
  MAX_ITER 200
  MAX_TEMP 2000
  TEMP_INCREMENT 0
  bisect  true
  bisect_iter  40
}
energy('rhf')
energy('scf')

scf.exampleFN()

--------------------------------------------------------------------------

*** tstart() called on Kevins-MacBook-Pro.local
*** at Sat Apr 11 12:23:29 2015

/Users/kevinhannon/Programs/Quantum_Programs/Quantum-Programs/GS/scf/scf.so loaded.

*** tstart() called on Kevins-MacBook-Pro.local
*** at Sat Apr 11 12:23:29 2015


         ---------------------------------------------------------
                                   SCF
            by Justin Turney, Rob Parrish, and Andy Simmonett
                              RHF Reference
                        1 Threads,    256 MiB Core
         ---------------------------------------------------------

  ==> Geometry <==

    Molecular point group: c1
    Full point group: Cs

    Geometry (in Angstrom), charge = 0, multiplicity = 1:

       Center              X                  Y                   Z       
    ------------   -----------------  -----------------  -----------------
           O          0.055957436636    -0.065582115738     0.000000000000
           H          0.812957436636     0.520417884262     0.000000000000
           H         -1.701042563364     0.520417884262     0.000000000000

  Running in c1 symmetry.

  Rotational constants: A =     32.04014  B =      4.53052  C =      3.96926 [cm^-1]
  Rotational constants: A = 960539.15320  B = 135821.54375  C = 118995.42822 [MHz]
  Nuclear repulsion =    6.918369808616976

  Charge       = 0
  Multiplicity = 1
  Electrons    = 10
  Nalpha       = 5
  Nbeta        = 5

  ==> Algorithm <==

  SCF Algorithm Type is PK.
  DIIS enabled.
  MOM disabled.
  Fractional occupation disabled.
  Guess Type is CORE.
  Energy threshold   = 1.00e-06
  Density threshold  = 1.00e-06
  Integral threshold = 0.00e+00

  ==> Primary Basis <==

  Basis Set: CC-PVDZ
    Number of shells: 12
    Number of basis function: 24
    Number of Cartesian functions: 25
    Spherical Harmonics?: true
    Max angular momentum: 2

  ==> Pre-Iterations <==

   -------------------------------------------------------
    Irrep   Nso     Nmo     Nalpha   Nbeta   Ndocc  Nsocc
   -------------------------------------------------------
     A         24      24       0       0       0       0
   -------------------------------------------------------
    Total      24      24       5       5       5       0
   -------------------------------------------------------

  Starting with a DF guess...

 OEINTS: Overlap, kinetic, potential, dipole, and quadrupole integrals
         stored in file 35.

  ==> Integral Setup <==

  ==> DFJK: Density-Fitted J/K Matrices <==

    J tasked:                  Yes
    K tasked:                  Yes
    wK tasked:                  No
    OpenMP threads:              1
    Integrals threads:           1
    Memory (MB):               183
    Algorithm:                Core
    Integral Cache:           NONE
    Schwarz Cutoff:          1E-12
    Fitting Condition:       1E-12

   => Auxiliary Basis Set <=

  Basis Set: 
    Number of shells: 42
    Number of basis function: 116
    Number of Cartesian functions: 131
    Spherical Harmonics?: true
    Max angular momentum: 3

  Minimum eigenvalue in the overlap matrix is 4.8980391635E-02.
  Using Symmetric Orthogonalization.
  SCF Guess: Core (One-Electron) Hamiltonian.

  ==> Iterations <==

                           Total Energy        Delta E     RMS |[F,P]|

   @DF-RHF iter   1:   -68.74969789534731   -6.87497e+01   1.18501e-01 
   @DF-RHF iter   2:   -67.50372754283480    1.24597e+00   9.16529e-02 DIIS
   @DF-RHF iter   3:   -74.94464332118272   -7.44092e+00   5.62484e-02 DIIS
   @DF-RHF iter   4:   -75.55086414062241   -6.06221e-01   2.59537e-02 DIIS
   @DF-RHF iter   5:   -75.79241251311363   -2.41548e-01   5.79780e-03 DIIS
   @DF-RHF iter   6:   -75.80461651951451   -1.22040e-02   4.25550e-03 DIIS
   @DF-RHF iter   7:   -75.80964095141215   -5.02443e-03   1.27242e-03 DIIS
   @DF-RHF iter   8:   -75.81026432894670   -6.23378e-04   1.32514e-04 DIIS
   @DF-RHF iter   9:   -75.81028173568929   -1.74067e-05   6.94075e-05 DIIS
   @DF-RHF iter  10:   -75.81029018718053   -8.45149e-06   2.68193e-05 DIIS
   @DF-RHF iter  11:   -75.81029068033422   -4.93154e-07   4.76374e-06 DIIS
   @DF-RHF iter  12:   -75.81029068961016   -9.27594e-09   1.13199e-06 DIIS
   @DF-RHF iter  13:   -75.81029069012790   -5.17744e-10   1.30416e-07 DIIS

  DF guess converged.

  ==> Integral Setup <==

 MINTS: Wrapper to libmints.
   by Justin Turney

   Calculation information:
      Number of atoms:                   3
      Number of AO shells:              12
      Number of SO shells:              12
      Number of primitives:             32
      Number of atomic orbitals:        25
      Number of basis functions:        24

      Number of irreps:                  1
      Integral cutoff                 0.00e+00
      Number of functions per irrep: [  24 ]

 OEINTS: Overlap, kinetic, potential, dipole, and quadrupole integrals
         stored in file 35.

      Computing two-electron integrals...done
      Computed 22580 non-zero two-electron integrals.
        Stored in file 33.

	Batch   1 pq = [       0,     300] index = [             0,45150]
  ==> DiskJK: Disk-Based J/K Matrices <==

    J tasked:                  Yes
    K tasked:                  Yes
    wK tasked:                  No
    Memory (MB):               183
    Schwarz Cutoff:          1E-12

   @RHF iter  14:   -75.81030657038289   -1.58803e-05   5.52247e-06 DIIS
   @RHF iter  15:   -75.81030657901837   -8.63548e-09   1.01579e-06 DIIS
   @RHF iter  16:   -75.81030657932841   -3.10038e-10   4.07808e-07 DIIS

  ==> Post-Iterations <==

    Orbital Energies (a.u.)
    -----------------------

    Doubly Occupied:                                                      

       1A    -20.592668     2A     -1.269626     3A     -0.621168  
       4A     -0.490085     5A     -0.422519  

    Virtual:                                                              

       6A     -0.005443     7A      0.221512     8A      0.618793  
       9A      0.839150    10A      1.154178    11A      1.178994  
      12A      1.216712    13A      1.445744    14A      1.461725  
      15A      1.525380    16A      1.593742    17A      1.649008  
      18A      2.024511    19A      2.455991    20A      2.976361  
      21A      3.004226    22A      3.315149    23A      3.323085  
      24A      4.056462  

    Final Occupation by Irrep:
              A 
    DOCC [     5 ]

  Energy converged.

  @RHF Final Energy:   -75.81030657932841

   => Energetics <=

    Nuclear Repulsion Energy =              6.9183698086169763
    One-Electron Energy =                -118.6652421047017469
    Two-Electron Energy =                  35.9365657167563626
    DFT Exchange-Correlation Energy =       0.0000000000000000
    Empirical Dispersion Energy =           0.0000000000000000
    PCM Polarization Energy =               0.0000000000000000
    EFP Energy =                            0.0000000000000000
    Total Energy =                        -75.8103065793284117

    Alert: EFP and PCM quantities not currently incorporated into SCF psivars.

Properties will be evaluated at   0.000000,   0.000000,   0.000000 Bohr
  ==> Properties <==


Properties computed using the SCF density matrix

  Nuclear Dipole Moment: (a.u.)
     X:    -0.8323      Y:     0.9754      Z:     0.0000

  Electronic Dipole Moment: (a.u.)
     X:     0.6365      Y:    -0.3234      Z:    -0.0000

  Dipole Moment: (a.u.)
     X:    -0.1958      Y:     0.6520      Z:    -0.0000     Total:     0.6808

  Dipole Moment: (Debye)
     X:    -0.4976      Y:     1.6573      Z:    -0.0000     Total:     1.7304


  Saving occupied orbitals to File 180.

*** tstop() called on Kevins-MacBook-Pro.local at Sat Apr 11 12:23:29 2015
Module time:
	user time   =       0.29 seconds =       0.00 minutes
	system time =       0.02 seconds =       0.00 minutes
	total time  =          0 seconds =       0.00 minutes
Total time:
	user time   =       0.30 seconds =       0.01 minutes
	system time =       0.02 seconds =       0.00 minutes
	total time  =          0 seconds =       0.00 minutes

*** tstart() called on Kevins-MacBook-Pro.local
*** at Sat Apr 11 12:23:29 2015


         ---------------------------------------------------------
                                   SCF
            by Justin Turney, Rob Parrish, and Andy Simmonett
                              RHF Reference
                        1 Threads,    256 MiB Core
         ---------------------------------------------------------

  ==> Geometry <==

    Molecular point group: c1
    Full point group: Cs

    Geometry (in Angstrom), charge = 0, multiplicity = 1:

       Center              X                  Y                   Z       
    ------------   -----------------  -----------------  -----------------
           O          0.055957436636    -0.065582115738     0.000000000000
           H          0.812957436636     0.520417884262     0.000000000000
           H         -1.701042563364     0.520417884262     0.000000000000

  Running in c1 symmetry.

  Rotational constants: A =     32.04014  B =      4.53052  C =      3.96926 [cm^-1]
  Rotational constants: A = 960539.15320  B = 135821.54375  C = 118995.42822 [MHz]
  Nuclear repulsion =    6.918369808616976

  Charge       = 0
  Multiplicity = 1
  Electrons    = 10
  Nalpha       = 5
  Nbeta        = 5

  ==> Algorithm <==

  SCF Algorithm Type is PK.
  DIIS enabled.
  MOM disabled.
  Fractional occupation disabled.
  Guess Type is CORE.
  Energy threshold   = 1.00e-08
  Density threshold  = 1.00e-08
  Integral threshold = 0.00e+00

  ==> Primary Basis <==

  Basis Set: CC-PVDZ
    Number of shells: 12
    Number of basis function: 24
    Number of Cartesian functions: 25
    Spherical Harmonics?: true
    Max angular momentum: 2

  ==> Pre-Iterations <==

   -------------------------------------------------------
    Irrep   Nso     Nmo     Nalpha   Nbeta   Ndocc  Nsocc
   -------------------------------------------------------
     A         24      24       0       0       0       0
   -------------------------------------------------------
    Total      24      24       5       5       5       0
   -------------------------------------------------------

  Starting with a DF guess...

 OEINTS: Overlap, kinetic, potential, dipole, and quadrupole integrals
         stored in file 35.

  ==> Integral Setup <==

  ==> DFJK: Density-Fitted J/K Matrices <==

    J tasked:                  Yes
    K tasked:                  Yes
    wK tasked:                  No
    OpenMP threads:              1
    Integrals threads:           1
    Memory (MB):               183
    Algorithm:                Core
    Integral Cache:           NONE
    Schwarz Cutoff:          1E-12
    Fitting Condition:       1E-12

   => Auxiliary Basis Set <=

  Basis Set: 
    Number of shells: 42
    Number of basis function: 116
    Number of Cartesian functions: 131
    Spherical Harmonics?: true
    Max angular momentum: 3

  Minimum eigenvalue in the overlap matrix is 4.8980391635E-02.
  Using Symmetric Orthogonalization.
  SCF Guess: Core (One-Electron) Hamiltonian.

  ==> Iterations <==

                           Total Energy        Delta E     RMS |[F,P]|

   @DF-RHF iter   1:   -68.74969789534731   -6.87497e+01   1.18501e-01 
   @DF-RHF iter   2:   -67.50372754283480    1.24597e+00   9.16529e-02 DIIS
   @DF-RHF iter   3:   -74.94464332118272   -7.44092e+00   5.62484e-02 DIIS
   @DF-RHF iter   4:   -75.55086414062241   -6.06221e-01   2.59537e-02 DIIS
   @DF-RHF iter   5:   -75.79241251311363   -2.41548e-01   5.79780e-03 DIIS
   @DF-RHF iter   6:   -75.80461651951451   -1.22040e-02   4.25550e-03 DIIS
   @DF-RHF iter   7:   -75.80964095141215   -5.02443e-03   1.27242e-03 DIIS
   @DF-RHF iter   8:   -75.81026432894670   -6.23378e-04   1.32514e-04 DIIS
   @DF-RHF iter   9:   -75.81028173568929   -1.74067e-05   6.94075e-05 DIIS
   @DF-RHF iter  10:   -75.81029018718053   -8.45149e-06   2.68193e-05 DIIS
   @DF-RHF iter  11:   -75.81029068033422   -4.93154e-07   4.76374e-06 DIIS
   @DF-RHF iter  12:   -75.81029068961018   -9.27596e-09   1.13199e-06 DIIS
   @DF-RHF iter  13:   -75.81029069012787   -5.17687e-10   1.30416e-07 DIIS
   @DF-RHF iter  14:   -75.81029069014446   -1.65841e-11   2.55938e-08 DIIS
   @DF-RHF iter  15:   -75.81029069014491   -4.54747e-13   6.25625e-09 DIIS

  DF guess converged.

  ==> Integral Setup <==

 MINTS: Wrapper to libmints.
   by Justin Turney

   Calculation information:
      Number of atoms:                   3
      Number of AO shells:              12
      Number of SO shells:              12
      Number of primitives:             32
      Number of atomic orbitals:        25
      Number of basis functions:        24

      Number of irreps:                  1
      Integral cutoff                 0.00e+00
      Number of functions per irrep: [  24 ]

 OEINTS: Overlap, kinetic, potential, dipole, and quadrupole integrals
         stored in file 35.

      Computing two-electron integrals...done
      Computed 22580 non-zero two-electron integrals.
        Stored in file 33.

	Batch   1 pq = [       0,     300] index = [             0,45150]
  ==> DiskJK: Disk-Based J/K Matrices <==

    J tasked:                  Yes
    K tasked:                  Yes
    wK tasked:                  No
    Memory (MB):               183
    Schwarz Cutoff:          1E-12

   @RHF iter  16:   -75.81030657038040   -1.58802e-05   5.52531e-06 DIIS
   @RHF iter  17:   -75.81030657902130   -8.64090e-09   1.00918e-06 DIIS
   @RHF iter  18:   -75.81030657933150   -3.10195e-10   3.93372e-07 DIIS
   @RHF iter  19:   -75.81030657936786   -3.63656e-11   1.91800e-07 DIIS
   @RHF iter  20:   -75.81030657937742   -9.56391e-12   3.50487e-08 DIIS
   @RHF iter  21:   -75.81030657937870   -1.27898e-12   1.48641e-08 DIIS
   @RHF iter  22:   -75.81030657937910   -3.97904e-13   4.75986e-09 DIIS

  ==> Post-Iterations <==

    Orbital Energies (a.u.)
    -----------------------

    Doubly Occupied:                                                      

       1A    -20.592673     2A     -1.269629     3A     -0.621171  
       4A     -0.490088     5A     -0.422520  

    Virtual:                                                              

       6A     -0.005443     7A      0.221510     8A      0.618795  
       9A      0.839148    10A      1.154177    11A      1.178992  
      12A      1.216711    13A      1.445744    14A      1.461726  
      15A      1.525381    16A      1.593740    17A      1.649006  
      18A      2.024511    19A      2.455988    20A      2.976358  
      21A      3.004223    22A      3.315146    23A      3.323082  
      24A      4.056459  

    Final Occupation by Irrep:
              A 
    DOCC [     5 ]

  Energy converged.

  @RHF Final Energy:   -75.81030657937910

   => Energetics <=

    Nuclear Repulsion Energy =              6.9183698086169763
    One-Electron Energy =                -118.6651936480468521
    Two-Electron Energy =                  35.9365172600507634
    DFT Exchange-Correlation Energy =       0.0000000000000000
    Empirical Dispersion Energy =           0.0000000000000000
    PCM Polarization Energy =               0.0000000000000000
    EFP Energy =                            0.0000000000000000
    Total Energy =                        -75.8103065793791160

    Alert: EFP and PCM quantities not currently incorporated into SCF psivars.

Properties will be evaluated at   0.000000,   0.000000,   0.000000 Bohr
  ==> Properties <==


Properties computed using the SCF density matrix

  Nuclear Dipole Moment: (a.u.)
     X:    -0.8323      Y:     0.9754      Z:     0.0000

  Electronic Dipole Moment: (a.u.)
     X:     0.6365      Y:    -0.3234      Z:     0.0000

  Dipole Moment: (a.u.)
     X:    -0.1958      Y:     0.6520      Z:     0.0000     Total:     0.6808

  Dipole Moment: (Debye)
     X:    -0.4976      Y:     1.6573      Z:     0.0000     Total:     1.7304


  Saving occupied orbitals to File 180.

*** tstop() called on Kevins-MacBook-Pro.local at Sat Apr 11 12:23:29 2015
Module time:
	user time   =       0.29 seconds =       0.00 minutes
	system time =       0.01 seconds =       0.00 minutes
	total time  =          0 seconds =       0.00 minutes
Total time:
	user time   =       0.60 seconds =       0.01 minutes
	system time =       0.03 seconds =       0.00 minutes
	total time  =          0 seconds =       0.00 minutes
Reading options from the SCF block
Calling plugin scf.so.
    Molecular point group: c1
    Full point group: Cs

    Geometry (in Angstrom), charge = 0, multiplicity = 1:

       Center              X                  Y                   Z       
    ------------   -----------------  -----------------  -----------------
           O          0.055957436636    -0.065582115738     0.000000000000
           H          0.812957436636     0.520417884262     0.000000000000
           H         -1.701042563364     0.520417884262     0.000000000000


    Nuclear repulsion energy:       6.91836981

  ## Overlap (Symmetry 0) ##
  Irrep: 1 Size: 24 x 24

                 1                   2                   3                   4                   5

    1     1.00000000000000    -0.21406265175603     0.19438415205281     0.00000000000000     0.00000000000000
    2    -0.21406265175603     1.00000000000000     0.70860732857704     0.00000000000000    -0.00000000000000
    3     0.19438415205281     0.70860732857704     1.00000000000000     0.00000000000000     0.00000000000000
    4     0.00000000000000     0.00000000000000     0.00000000000000     1.00000000000000     0.00000000000000
    5     0.00000000000000    -0.00000000000000     0.00000000000000     0.00000000000000     1.00000000000000
    6     0.00000000000000     0.00000000000000     0.00000000000000     0.00000000000000    -0.00000000000000
    7     0.00000000000000     0.00000000000000     0.00000000000000     0.50127148324600     0.00000000000000
    8     0.00000000000000    -0.00000000000000     0.00000000000000     0.00000000000000     0.50127148324600
    9    -0.00000000000000     0.00000000000000     0.00000000000000     0.00000000000000    -0.00000000000000
   10     0.00000000000000     0.00000000000000     0.00000000000000     0.00000000000000    -0.00000000000000
   11     0.00000000000000     0.00000000000000     0.00000000000000     0.00000000000000     0.00000000000000
   12     0.00000000000000     0.00000000000000     0.00000000000000    -0.00000000000000     0.00000000000000
   13     0.00000000000000     0.00000000000000     0.00000000000000     0.00000000000000     0.00000000000000
   14     0.00000000000000    -0.00000000000000     0.00000000000000     0.00000000000000    -0.00000000000000
   15     0.05392296379400     0.27647639178065     0.49715907527040     0.00000000000000     0.22306761868835
   16     0.06972459883582     0.32546702212517     0.64802577198498     0.00000000000000     0.08394161931421
   17     0.00000000000000     0.00000000000000     0.00000000000000     0.19595761277095     0.00000000000000
   18    -0.08777802424920    -0.31948144466298    -0.30969007534401     0.00000000000000    -0.16407828832160
   19    -0.06794969908855    -0.24731324514202    -0.23973366466525     0.00000000000000    -0.27870678737151
   20     0.00137155086278     0.01709229334900     0.09277497197703     0.00000000000000    -0.02491728207060
   21     0.02390360463413     0.12418312069819     0.29695574523621     0.00000000000000    -0.07250308351328
   22     0.00000000000000     0.00000000000000     0.00000000000000     0.00380330464882     0.00000000000000
   23     0.00077829477425     0.01942079812461     0.10570981481819     0.00000000000000    -0.03251109246912
   24    -0.00025957924741    -0.00647728383667    -0.03525665992229     0.00000000000000     0.01211168850945

                 6                   7                   8                   9                  10

    1     0.00000000000000     0.00000000000000     0.00000000000000    -0.00000000000000     0.00000000000000
    2     0.00000000000000     0.00000000000000    -0.00000000000000     0.00000000000000     0.00000000000000
    3     0.00000000000000     0.00000000000000     0.00000000000000     0.00000000000000     0.00000000000000
    4     0.00000000000000     0.50127148324600     0.00000000000000     0.00000000000000     0.00000000000000
    5    -0.00000000000000     0.00000000000000     0.50127148324600    -0.00000000000000    -0.00000000000000
    6     1.00000000000000     0.00000000000000    -0.00000000000000     0.50127148324600     0.00000000000000
    7     0.00000000000000     1.00000000000000     0.00000000000000     0.00000000000000     0.00000000000000
    8    -0.00000000000000     0.00000000000000     1.00000000000000     0.00000000000000     0.00000000000000
    9     0.50127148324600     0.00000000000000     0.00000000000000     1.00000000000000     0.00000000000000
   10     0.00000000000000     0.00000000000000     0.00000000000000     0.00000000000000     1.00000000000000
   11     0.00000000000000     0.00000000000000     0.00000000000000     0.00000000000000     0.00000000000000
   12     0.00000000000000     0.00000000000000     0.00000000000000     0.00000000000000     0.00000000000000
   13     0.00000000000000     0.00000000000000     0.00000000000000     0.00000000000000     0.00000000000000
   14     0.00000000000000     0.00000000000000     0.00000000000000     0.00000000000000     0.00000000000000
   15     0.17267850006787     0.00000000000000     0.49217308542948     0.38099528145532    -0.11538482690009
   16     0.06497990610056     0.00000000000000     0.30974722873178     0.23977790757837    -0.01205692773329
   17     0.00000000000000     0.39169141557526     0.00000000000000     0.00000000000000     0.00000000000000
   18    -0.27870678737151     0.00000000000000     0.07157611108295    -0.24780392131108     0.06897625601920
   19    -0.01979163082179     0.00000000000000    -0.24780392131108     0.19986433778359     0.05339509382728
   20     0.00831048793021     0.00000000000000    -0.22949581475353     0.07654214424904    -0.01643507598753
   21     0.02418144959521     0.00000000000000    -0.33657166114061     0.11225440718748    -0.01671899045919
   22     0.00000000000000     0.06522099363360     0.00000000000000     0.00000000000000     0.00000000000000
   23     0.01211168850945     0.00000000000000    -0.22192420536005     0.09576954274916    -0.02669387367345
   24    -0.00023622265143     0.00000000000000     0.09576954274916     0.03327964357611     0.00890302218136

                11                  12                  13                  14                  15

    1     0.00000000000000     0.00000000000000     0.00000000000000     0.00000000000000     0.05392296379400
    2     0.00000000000000     0.00000000000000     0.00000000000000    -0.00000000000000     0.27647639178065
    3     0.00000000000000     0.00000000000000     0.00000000000000     0.00000000000000     0.49715907527040
    4     0.00000000000000    -0.00000000000000     0.00000000000000     0.00000000000000     0.00000000000000
    5     0.00000000000000     0.00000000000000     0.00000000000000    -0.00000000000000     0.22306761868835
    6     0.00000000000000     0.00000000000000     0.00000000000000     0.00000000000000     0.17267850006787
    7     0.00000000000000     0.00000000000000     0.00000000000000     0.00000000000000     0.00000000000000
    8     0.00000000000000     0.00000000000000     0.00000000000000     0.00000000000000     0.49217308542948
    9     0.00000000000000     0.00000000000000     0.00000000000000     0.00000000000000     0.38099528145532
   10     0.00000000000000     0.00000000000000     0.00000000000000     0.00000000000000    -0.11538482690009
   11     1.00000000000000     0.00000000000000     0.00000000000000     0.00000000000000     0.00000000000000
   12     0.00000000000000     1.00000000000000     0.00000000000000     0.00000000000000     0.00000000000000
   13     0.00000000000000     0.00000000000000     1.00000000000000     0.00000000000000     0.05008123698022
   14     0.00000000000000     0.00000000000000     0.00000000000000     1.00000000000000     0.19347569495630
   15     0.00000000000000     0.00000000000000     0.05008123698022     0.19347569495630     1.00000000000000
   16     0.00000000000000     0.00000000000000     0.00523314781749     0.02021689103244     0.68486025149275
   17     0.25173795857089     0.19487244877482     0.00000000000000     0.00000000000000     0.00000000000000
   18     0.00000000000000     0.00000000000000     0.15871643675092    -0.16449174957993    -0.00000000000000
   19     0.00000000000000     0.00000000000000    -0.26688118297099    -0.02644885812116    -0.00000000000000
   20     0.00000000000000     0.00000000000000     0.02276727570179    -0.01708760735932     0.00445853662530
   21     0.00000000000000     0.00000000000000     0.02316057835868    -0.01738279425223     0.07573872559910
   22    -0.01022976254748     0.00341186161231     0.00000000000000     0.00000000000000     0.00000000000000
   23     0.00000000000000     0.00000000000000     0.03493059251751    -0.03048250614894     0.00473365350119
   24     0.00000000000000     0.00000000000000    -0.01847388100222     0.00107479038826    -0.00000000000000

                16                  17                  18                  19                  20

    1     0.06972459883582     0.00000000000000    -0.08777802424920    -0.06794969908855     0.00137155086278
    2     0.32546702212517     0.00000000000000    -0.31948144466298    -0.24731324514202     0.01709229334900
    3     0.64802577198498     0.00000000000000    -0.30969007534401    -0.23973366466525     0.09277497197703
    4     0.00000000000000     0.19595761277095     0.00000000000000     0.00000000000000     0.00000000000000
    5     0.08394161931421     0.00000000000000    -0.16407828832160    -0.27870678737151    -0.02491728207060
    6     0.06497990610056     0.00000000000000    -0.27870678737151    -0.01979163082179     0.00831048793021
    7     0.00000000000000     0.39169141557526     0.00000000000000     0.00000000000000     0.00000000000000
    8     0.30974722873178     0.00000000000000     0.07157611108295    -0.24780392131108    -0.22949581475353
    9     0.23977790757837     0.00000000000000    -0.24780392131108     0.19986433778359     0.07654214424904
   10    -0.01205692773329     0.00000000000000     0.06897625601920     0.05339509382728    -0.01643507598753
   11     0.00000000000000     0.25173795857089     0.00000000000000     0.00000000000000     0.00000000000000
   12     0.00000000000000     0.19487244877482     0.00000000000000     0.00000000000000     0.00000000000000
   13     0.00523314781749     0.00000000000000     0.15871643675092    -0.26688118297099     0.02276727570179
   14     0.02021689103244     0.00000000000000    -0.16449174957993    -0.02644885812116    -0.01708760735932
   15     0.68486025149275     0.00000000000000    -0.00000000000000    -0.00000000000000     0.00445853662530
   16     1.00000000000000     0.00000000000000     0.00000000000000    -0.00000000000000     0.07573872559910
   17     0.00000000000000     1.00000000000000     0.00000000000000     0.00000000000000     0.00000000000000
   18     0.00000000000000     0.00000000000000     1.00000000000000     0.00000000000000    -0.00473365350119
   19    -0.00000000000000     0.00000000000000     0.00000000000000     1.00000000000000    -0.00000000000000
   20     0.07573872559910     0.00000000000000    -0.00473365350119    -0.00000000000000     1.00000000000000
   21     0.25239508553542     0.00000000000000    -0.06473207545696    -0.00000000000000     0.68486025149275
   22     0.00000000000000     0.00027352073045     0.00000000000000     0.00000000000000     0.00000000000000
   23     0.06473207545696     0.00000000000000    -0.00421448024901     0.00000000000000     0.00000000000000
   24    -0.00000000000000     0.00000000000000     0.00000000000000     0.00027352073045    -0.00000000000000

                21                  22                  23                  24

    1     0.02390360463413     0.00000000000000     0.00077829477425    -0.00025957924741
    2     0.12418312069819     0.00000000000000     0.01942079812461    -0.00647728383667
    3     0.29695574523621     0.00000000000000     0.10570981481819    -0.03525665992229
    4     0.00000000000000     0.00380330464882     0.00000000000000     0.00000000000000
    5    -0.07250308351328     0.00000000000000    -0.03251109246912     0.01211168850945
    6     0.02418144959521     0.00000000000000     0.01211168850945    -0.00023622265143
    7     0.00000000000000     0.06522099363360     0.00000000000000     0.00000000000000
    8    -0.33657166114061     0.00000000000000    -0.22192420536005     0.09576954274916
    9     0.11225440718748     0.00000000000000     0.09576954274916     0.03327964357611
   10    -0.01671899045919     0.00000000000000    -0.02669387367345     0.00890302218136
   11     0.00000000000000    -0.01022976254748     0.00000000000000     0.00000000000000
   12     0.00000000000000     0.00341186161231     0.00000000000000     0.00000000000000
   13     0.02316057835868     0.00000000000000     0.03493059251751    -0.01847388100222
   14    -0.01738279425223     0.00000000000000    -0.03048250614894     0.00107479038826
   15     0.07573872559910     0.00000000000000     0.00473365350119    -0.00000000000000
   16     0.25239508553542     0.00000000000000     0.06473207545696    -0.00000000000000
   17     0.00000000000000     0.00027352073045     0.00000000000000     0.00000000000000
   18    -0.06473207545696     0.00000000000000    -0.00421448024901     0.00000000000000
   19    -0.00000000000000     0.00000000000000     0.00000000000000     0.00027352073045
   20     0.68486025149275     0.00000000000000     0.00000000000000    -0.00000000000000
   21     1.00000000000000     0.00000000000000     0.00000000000000    -0.00000000000000
   22     0.00000000000000     1.00000000000000     0.00000000000000     0.00000000000000
   23     0.00000000000000     0.00000000000000     1.00000000000000     0.00000000000000
   24    -0.00000000000000     0.00000000000000     0.00000000000000     1.00000000000000



  ## Kinetic (Symmetry 0) ##
  Irrep: 1 Size: 24 x 24

                 1                   2                   3                   4                   5

    1    29.18664172532131   -15.94965622463628     0.16779580102055     0.00000000000000    -0.00000000000000
    2   -15.94965622463628    10.36110421150721     0.47126332692091     0.00000000000000     0.00000000000000
    3     0.16779580102055     0.47126332692091     0.45345000000000     0.00000000000000     0.00000000000000
    4     0.00000000000000     0.00000000000000     0.00000000000000     4.32482633292432     0.00000000000000
    5    -0.00000000000000     0.00000000000000     0.00000000000000     0.00000000000000     4.32482633292432
    6     0.00000000000000     0.00000000000000     0.00000000000000     0.00000000000000    -0.00000000000000
    7     0.00000000000000     0.00000000000000     0.00000000000000     0.55816889960661     0.00000000000000
    8    -0.00000000000000     0.00000000000000     0.00000000000000     0.00000000000000     0.55816889960661
    9     0.00000000000000    -0.00000000000000     0.00000000000000     0.00000000000000    -0.00000000000000
   10    -0.00000000000000     0.00000000000000     0.00000000000000     0.00000000000000    -0.00000000000000
   11     0.00000000000000     0.00000000000000     0.00000000000000     0.00000000000000     0.00000000000000
   12     0.00000000000000     0.00000000000000     0.00000000000000    -0.00000000000000     0.00000000000000
   13     0.00000000000000     0.00000000000000     0.00000000000000     0.00000000000000     0.00000000000000
   14    -0.00000000000000     0.00000000000000     0.00000000000000     0.00000000000000    -0.00000000000000
   15    -0.00277268546727     0.06292679077189     0.16348333582146     0.00000000000000     0.17456881010516
   16     0.01845345447510     0.08025050074316     0.13693505153004     0.00000000000000     0.03955694075165
   17     0.00000000000000     0.00000000000000     0.00000000000000     0.17709401149728     0.00000000000000
   18    -0.03942029893151    -0.33308642117191    -0.23820828089031     0.00000000000000    -0.47194595472606
   19    -0.03051558147142    -0.25784497068261    -0.18439901268392     0.00000000000000    -0.50242723937500
   20    -0.00378651767568    -0.02325383640128    -0.02708118710324     0.00000000000000     0.02323115584074
   21     0.00022059770394     0.00497052755911     0.02246586147521     0.00000000000000    -0.01836839347154
   22     0.00000000000000     0.00000000000000     0.00000000000000    -0.00931016674085     0.00000000000000
   23    -0.00430303995505    -0.04220183235145    -0.00522038314090     0.00000000000000     0.04929777449862
   24     0.00143516301290     0.01407528386907     0.00174111811074     0.00000000000000    -0.01954709935477

                 6                   7                   8                   9                  10

    1     0.00000000000000     0.00000000000000    -0.00000000000000     0.00000000000000    -0.00000000000000
    2     0.00000000000000     0.00000000000000     0.00000000000000    -0.00000000000000     0.00000000000000
    3     0.00000000000000     0.00000000000000     0.00000000000000     0.00000000000000     0.00000000000000
    4     0.00000000000000     0.55816889960661     0.00000000000000     0.00000000000000     0.00000000000000
    5    -0.00000000000000     0.00000000000000     0.55816889960661    -0.00000000000000    -0.00000000000000
    6     4.32482633292432     0.00000000000000    -0.00000000000000     0.55816889960661     0.00000000000000
    7     0.00000000000000     0.68825000000000     0.00000000000000     0.00000000000000     0.00000000000000
    8    -0.00000000000000     0.00000000000000     0.68825000000000     0.00000000000000     0.00000000000000
    9     0.55816889960661     0.00000000000000     0.00000000000000     0.68825000000000     0.00000000000000
   10     0.00000000000000     0.00000000000000     0.00000000000000     0.00000000000000     4.14750000000000
   11     0.00000000000000     0.00000000000000     0.00000000000000     0.00000000000000     0.00000000000000
   12     0.00000000000000     0.00000000000000     0.00000000000000     0.00000000000000     0.00000000000000
   13     0.00000000000000     0.00000000000000     0.00000000000000     0.00000000000000    -0.00000000000000
   14     0.00000000000000     0.00000000000000     0.00000000000000     0.00000000000000     0.00000000000000
   15     0.13513516872077     0.00000000000000     0.33823544287076     0.26183087123152    -0.18036785046072
   16     0.03062135704157     0.00000000000000     0.11643676492397     0.09013466875224    -0.00836994101973
   17     0.00000000000000     0.28884559051322     0.00000000000000     0.00000000000000     0.00000000000000
   18    -0.50242723937500     0.00000000000000    -0.07506121889448    -0.28170328971323     0.31902616446235
   19    -0.21183909586567     0.00000000000000    -0.28170328971323     0.07077672951989     0.24696080894972
   20    -0.00774812596624     0.00000000000000    -0.02498891874224     0.00833438041147     0.00625435892718
   21     0.00612628262625     0.00000000000000    -0.08333206986024     0.02779316615714    -0.00793346066594
   22     0.00000000000000     0.00140146479013     0.00000000000000     0.00000000000000     0.00000000000000
   23    -0.01954709935477     0.00000000000000    -0.11944519857561     0.04030514782716     0.01920590622747
   24    -0.00279075853260     0.00000000000000     0.04030514782716    -0.01204123107027    -0.00640561243557

                11                  12                  13                  14                  15

    1     0.00000000000000     0.00000000000000     0.00000000000000    -0.00000000000000    -0.00277268546727
    2     0.00000000000000     0.00000000000000     0.00000000000000     0.00000000000000     0.06292679077189
    3     0.00000000000000     0.00000000000000     0.00000000000000     0.00000000000000     0.16348333582146
    4     0.00000000000000    -0.00000000000000     0.00000000000000     0.00000000000000     0.00000000000000
    5     0.00000000000000     0.00000000000000     0.00000000000000    -0.00000000000000     0.17456881010516
    6     0.00000000000000     0.00000000000000     0.00000000000000     0.00000000000000     0.13513516872077
    7     0.00000000000000     0.00000000000000     0.00000000000000     0.00000000000000     0.00000000000000
    8     0.00000000000000     0.00000000000000     0.00000000000000     0.00000000000000     0.33823544287076
    9     0.00000000000000     0.00000000000000     0.00000000000000     0.00000000000000     0.26183087123152
   10     0.00000000000000     0.00000000000000     0.00000000000000     0.00000000000000    -0.18036785046072
   11     4.14750000000000     0.00000000000000     0.00000000000000     0.00000000000000     0.00000000000000
   12     0.00000000000000     4.14750000000000     0.00000000000000     0.00000000000000     0.00000000000000
   13     0.00000000000000     0.00000000000000     4.14750000000000     0.00000000000000     0.07828624703279
   14     0.00000000000000     0.00000000000000     0.00000000000000     4.14750000000000     0.30243833745904
   15     0.00000000000000     0.00000000000000     0.07828624703279     0.30243833745904     0.96945722711242
   16     0.00000000000000     0.00000000000000     0.00363286067138     0.01403460228733     0.20123413106538
   17     0.45947107382865     0.35568038211834     0.00000000000000     0.00000000000000     0.00000000000000
   18     0.00000000000000     0.00000000000000     0.20586266325865    -0.62406904981307    -0.00000000000000
   19     0.00000000000000     0.00000000000000    -0.55200076335219    -0.29896111522262    -0.00000000000000
   20     0.00000000000000     0.00000000000000    -0.00866407396845     0.00650267937386    -0.00721598929012
   21     0.00000000000000     0.00000000000000     0.01099010959169    -0.00824844746462    -0.01031482460033
   22     0.01861832993477    -0.00620964219794     0.00000000000000     0.00000000000000     0.00000000000000
   23     0.00000000000000     0.00000000000000    -0.02287818576783     0.02493489070067    -0.00979234576614
   24     0.00000000000000     0.00000000000000     0.02004968670660     0.00823091031122     0.00000000000000

                16                  17                  18                  19                  20

    1     0.01845345447510     0.00000000000000    -0.03942029893151    -0.03051558147142    -0.00378651767568
    2     0.08025050074316     0.00000000000000    -0.33308642117191    -0.25784497068261    -0.02325383640128
    3     0.13693505153004     0.00000000000000    -0.23820828089031    -0.18439901268392    -0.02708118710324
    4     0.00000000000000     0.17709401149728     0.00000000000000     0.00000000000000     0.00000000000000
    5     0.03955694075165     0.00000000000000    -0.47194595472606    -0.50242723937500     0.02323115584074
    6     0.03062135704157     0.00000000000000    -0.50242723937500    -0.21183909586567    -0.00774812596624
    7     0.00000000000000     0.28884559051322     0.00000000000000     0.00000000000000     0.00000000000000
    8     0.11643676492397     0.00000000000000    -0.07506121889448    -0.28170328971323    -0.02498891874224
    9     0.09013466875224     0.00000000000000    -0.28170328971323     0.07077672951989     0.00833438041147
   10    -0.00836994101973     0.00000000000000     0.31902616446235     0.24696080894972     0.00625435892718
   11     0.00000000000000     0.45947107382865     0.00000000000000     0.00000000000000     0.00000000000000
   12     0.00000000000000     0.35568038211834     0.00000000000000     0.00000000000000     0.00000000000000
   13     0.00363286067138     0.00000000000000     0.20586266325865    -0.55200076335219    -0.00866407396845
   14     0.01403460228733     0.00000000000000    -0.62406904981307    -0.29896111522262     0.00650267937386
   15     0.20123413106538     0.00000000000000    -0.00000000000000    -0.00000000000000    -0.00721598929012
   16     0.18300000000000     0.00000000000000     0.00000000000000    -0.00000000000000    -0.01031482460033
   17     0.00000000000000     1.81750000000000     0.00000000000000     0.00000000000000     0.00000000000000
   18     0.00000000000000     0.00000000000000     1.81750000000000     0.00000000000000     0.00979234576614
   19    -0.00000000000000     0.00000000000000     0.00000000000000     1.81750000000000     0.00000000000000
   20    -0.01031482460033     0.00000000000000     0.00979234576614     0.00000000000000     0.96945722711242
   21     0.00379484249987     0.00000000000000    -0.00192267164406     0.00000000000000     0.20123413106538
   22     0.00000000000000    -0.00113426442844     0.00000000000000     0.00000000000000     0.00000000000000
   23     0.00192267164406     0.00000000000000     0.01421427163800     0.00000000000000     0.00000000000000
   24     0.00000000000000     0.00000000000000     0.00000000000000    -0.00113426442844    -0.00000000000000

                21                  22                  23                  24

    1     0.00022059770394     0.00000000000000    -0.00430303995505     0.00143516301290
    2     0.00497052755911     0.00000000000000    -0.04220183235145     0.01407528386907
    3     0.02246586147521     0.00000000000000    -0.00522038314090     0.00174111811074
    4     0.00000000000000    -0.00931016674085     0.00000000000000     0.00000000000000
    5    -0.01836839347154     0.00000000000000     0.04929777449862    -0.01954709935477
    6     0.00612628262625     0.00000000000000    -0.01954709935477    -0.00279075853260
    7     0.00000000000000     0.00140146479013     0.00000000000000     0.00000000000000
    8    -0.08333206986024     0.00000000000000    -0.11944519857561     0.04030514782716
    9     0.02779316615714     0.00000000000000     0.04030514782716    -0.01204123107027
   10    -0.00793346066594     0.00000000000000     0.01920590622747    -0.00640561243557
   11     0.00000000000000     0.01861832993477     0.00000000000000     0.00000000000000
   12     0.00000000000000    -0.00620964219794     0.00000000000000     0.00000000000000
   13     0.01099010959169     0.00000000000000    -0.02287818576783     0.02004968670660
   14    -0.00824844746462     0.00000000000000     0.02493489070067     0.00823091031122
   15    -0.01031482460033     0.00000000000000    -0.00979234576614     0.00000000000000
   16     0.00379484249987     0.00000000000000     0.00192267164405     0.00000000000000
   17     0.00000000000000    -0.00113426442844     0.00000000000000     0.00000000000000
   18    -0.00192267164406     0.00000000000000     0.01421427163800     0.00000000000000
   19     0.00000000000000     0.00000000000000     0.00000000000000    -0.00113426442844
   20     0.20123413106538     0.00000000000000     0.00000000000000    -0.00000000000000
   21     0.18300000000000     0.00000000000000     0.00000000000000    -0.00000000000000
   22     0.00000000000000     1.81750000000000     0.00000000000000     0.00000000000000
   23     0.00000000000000     0.00000000000000     1.81750000000000     0.00000000000000
   24    -0.00000000000000     0.00000000000000     0.00000000000000     1.81750000000000



  ## Potential (Symmetry 0) ##
  Irrep: 1 Size: 24 x 24

                 1                   2                   3                   4                   5

    1   -61.94625181124343    23.76133896774339    -6.04531180522833     0.00000000000000    -0.01344971130485
    2    23.76133896774339   -20.37280123553317    -5.32801238956661     0.00000000000000    -0.07470591268746
    3    -6.04531180522833    -5.32801238956661    -7.83171673547131     0.00000000000000    -0.07704000035427
    4     0.00000000000000     0.00000000000000     0.00000000000000   -12.53872554755040     0.00000000000000
    5    -0.01344971130485    -0.07470591268746    -0.07704000035427     0.00000000000000   -12.60260274885010
    6    -0.01744038868545    -0.09704606631311    -0.10159774579237     0.00000000000000    -0.03758366078726
    7     0.00000000000000     0.00000000000000     0.00000000000000    -4.20092754058329     0.00000000000000
    8    -0.00250199473431    -0.04990237016348    -0.08638775220359     0.00000000000000    -4.26044305419459
    9    -0.00326619691126    -0.06628207547715    -0.14444998765453     0.00000000000000    -0.03394060300041
   10     0.00176583334595     0.04305265882709     0.05969020534253     0.00000000000000     0.05262844173890
   11     0.00000000000000     0.00000000000000     0.00000000000000    -0.04975834277954     0.00000000000000
   12     0.00000000000000     0.00000000000000     0.00000000000000    -0.07174094452290     0.00000000000000
   13    -0.00097108550812    -0.02371545744314    -0.03333942955808     0.00000000000000    -0.05790800025016
   14    -0.00237650667365    -0.05782867086514    -0.07886496156547     0.00000000000000    -0.11816801910230
   15    -1.60598860191879    -2.14343041898071    -3.53746192019709     0.00000000000000    -1.91081895829315
   16    -2.10580239164240    -2.43972160324308    -4.22390374458573     0.00000000000000    -0.71031564608070
   17     0.00000000000000     0.00000000000000     0.00000000000000    -1.62596101626464     0.00000000000000
   18     2.69610998478704     2.55168385990751     3.03994142507268     0.00000000000000     1.73986330972460
   19     2.08668595229192     1.96777932313357     2.33716670390969     0.00000000000000     2.60140731404038
   20    -0.03405704690850    -0.11663803003989    -0.43746663940952     0.00000000000000     0.16704258237338
   21    -0.71163088237753    -0.91231604967903    -1.75747109948851     0.00000000000000     0.54487831846128
   22     0.00000000000000     0.00000000000000     0.00000000000000    -0.02180587472875     0.00000000000000
   23    -0.01430611701015    -0.12472798459118    -0.50504507469224     0.00000000000000     0.20128474724333
   24     0.00476668161629     0.04140810447512     0.16691103694631     0.00000000000000    -0.07413231837513

                 6                   7                   8                   9                  10

    1    -0.01744038868545     0.00000000000000    -0.00250199473431    -0.00326619691126     0.00176583334595
    2    -0.09704606631311     0.00000000000000    -0.04990237016348    -0.06628207547715     0.04305265882709
    3    -0.10159774579237     0.00000000000000    -0.08638775220359    -0.14444998765453     0.05969020534253
    4     0.00000000000000    -4.20092754058329     0.00000000000000     0.00000000000000     0.00000000000000
    5    -0.03758366078726     0.00000000000000    -4.26044305419459    -0.03394060300041     0.05262844173890
    6   -12.57177636044439     0.00000000000000    -0.03394060300041    -4.23124716239444     0.06251082258894
    7     0.00000000000000    -5.14475673542241     0.00000000000000     0.00000000000000     0.00000000000000
    8    -0.03394060300041     0.00000000000000    -5.31370419835894    -0.06866756787430     0.05326679347660
    9    -4.23124716239444     0.00000000000000    -0.06866756787430    -5.21863001208882     0.06372617334673
   10     0.06251082258894     0.00000000000000     0.05326679347660     0.06372617334673    -8.22419030325641
   11     0.00000000000000    -0.03876529709288     0.00000000000000     0.00000000000000     0.00000000000000
   12     0.00000000000000    -0.06171172656882     0.00000000000000     0.00000000000000     0.00000000000000
   13     0.06184484616757     0.00000000000000    -0.04857402955997     0.04831704358840     0.02580280842978
   14    -0.08300547754433     0.00000000000000    -0.12377165298890    -0.08245206019065     0.06620329389850
   15    -1.48933870105226     0.00000000000000    -2.81374939851848    -2.19454508332395     0.89225532210378
   16    -0.56880577810465     0.00000000000000    -1.46640625433998    -1.19243683898836     0.12991639507303
   17     0.00000000000000    -2.14002655112307     0.00000000000000     0.00000000000000     0.00000000000000
   18     2.61846792212166     0.00000000000000     0.15902978277759     1.79241324842817    -0.62592793637097
   19     0.39564943285595     0.00000000000000     1.76769479269679    -0.76679575221078    -0.47761551164525
   20    -0.05656357640091     0.00000000000000     0.96369865065022    -0.32404520086542     0.09765423272567
   21    -0.19865911352878     0.00000000000000     1.43582614351163    -0.51174124162279     0.11146712890989
   22     0.00000000000000    -0.24755060671368     0.00000000000000     0.00000000000000     0.00000000000000
   23    -0.07500656051390     0.00000000000000     1.00311719929949    -0.41947805624725     0.15381336319169
   24     0.00307710721837     0.00000000000000    -0.41346932990881    -0.10915415710584    -0.05099952005206

                11                  12                  13                  14                  15

    1     0.00000000000000     0.00000000000000    -0.00097108550812    -0.00237650667365    -1.60598860191879
    2     0.00000000000000     0.00000000000000    -0.02371545744314    -0.05782867086514    -2.14343041898071
    3     0.00000000000000     0.00000000000000    -0.03333942955808    -0.07886496156547    -3.53746192019709
    4    -0.04975834277954    -0.07174094452290     0.00000000000000     0.00000000000000     0.00000000000000
    5     0.00000000000000     0.00000000000000    -0.05790800025016    -0.11816801910230    -1.91081895829315
    6     0.00000000000000     0.00000000000000     0.06184484616757    -0.08300547754433    -1.48933870105226
    7    -0.03876529709288    -0.06171172656882     0.00000000000000     0.00000000000000     0.00000000000000
    8     0.00000000000000     0.00000000000000    -0.04857402955997    -0.12377165298890    -2.81374939851848
    9     0.00000000000000     0.00000000000000     0.04831704358840    -0.08245206019065    -2.19454508332395
   10     0.00000000000000     0.00000000000000     0.02580280842978     0.06620329389850     0.89225532210378
   11    -8.23374671307939    -0.03108406803155     0.00000000000000     0.00000000000000     0.00000000000000
   12    -0.03108406803155    -8.20476904533627     0.00000000000000     0.00000000000000     0.00000000000000
   13     0.00000000000000     0.00000000000000    -8.26720867120025    -0.01242256271407    -0.37982094261188
   14     0.00000000000000     0.00000000000000    -0.01242256271407    -8.31521215246982    -1.49448460952131
   15     0.00000000000000     0.00000000000000    -0.37982094261188    -1.49448460952131    -5.96407781904782
   16     0.00000000000000     0.00000000000000    -0.05476518562293    -0.20892944279660    -3.67718924535215
   17    -1.75914133309431    -1.36875387697926     0.00000000000000     0.00000000000000     0.00000000000000
   18     0.00000000000000     0.00000000000000    -1.06019274209862     1.38317637366874     1.18547827279535
   19     0.00000000000000     0.00000000000000     1.91069501404710     0.36682314812230     0.89611064063116
   20     0.00000000000000     0.00000000000000    -0.13418910179591     0.10227194824668    -0.02697125223697
   21     0.00000000000000     0.00000000000000    -0.14285422971608     0.10558548664268    -0.48292191763301
   22     0.05540094393962    -0.01861803364125     0.00000000000000     0.00000000000000     0.00000000000000
   23     0.00000000000000     0.00000000000000    -0.20095617637902     0.17556449221035    -0.02608469306565
   24     0.00000000000000     0.00000000000000     0.10388463318199    -0.00908068485374     0.00143651807492

                16                  17                  18                  19                  20

    1    -2.10580239164240     0.00000000000000     2.69610998478704     2.08668595229192    -0.03405704690850
    2    -2.43972160324308     0.00000000000000     2.55168385990751     1.96777932313357    -0.11663803003989
    3    -4.22390374458573     0.00000000000000     3.03994142507268     2.33716670390969    -0.43746663940952
    4     0.00000000000000    -1.62596101626464     0.00000000000000     0.00000000000000     0.00000000000000
    5    -0.71031564608070     0.00000000000000     1.73986330972460     2.60140731404038     0.16704258237338
    6    -0.56880577810465     0.00000000000000     2.61846792212166     0.39564943285595    -0.05656357640091
    7     0.00000000000000    -2.14002655112307     0.00000000000000     0.00000000000000     0.00000000000000
    8    -1.46640625433998     0.00000000000000     0.15902978277759     1.76769479269679     0.96369865065022
    9    -1.19243683898836     0.00000000000000     1.79241324842817    -0.76679575221078    -0.32404520086542
   10     0.12991639507303     0.00000000000000    -0.62592793637097    -0.47761551164525     0.09765423272567
   11     0.00000000000000    -1.75914133309431     0.00000000000000     0.00000000000000     0.00000000000000
   12     0.00000000000000    -1.36875387697926     0.00000000000000     0.00000000000000     0.00000000000000
   13    -0.05476518562293     0.00000000000000    -1.06019274209862     1.91069501404710    -0.13418910179591
   14    -0.20892944279660     0.00000000000000     1.38317637366874     0.36682314812230     0.10227194824668
   15    -3.67718924535215     0.00000000000000     1.18547827279535     0.89611064063116    -0.02697125223697
   16    -4.27749269147564     0.00000000000000     1.01259493875464     0.76361693009180    -0.31121331076588
   17     0.00000000000000    -5.07365173788454     0.00000000000000     0.00000000000000     0.00000000000000
   18     1.01259493875464     0.00000000000000    -5.87636173777695    -0.61393655145297     0.03269085959409
   19     0.76361693009180     0.00000000000000    -0.61393655145297    -5.54890513174378     0.00396555018925
   20    -0.31121331076588     0.00000000000000     0.03269085959409     0.00396555018925    -3.87403171784302
   21    -1.15008061477918     0.00000000000000     0.50266097730417     0.12715630910015    -2.35896804822772
   22     0.00000000000000    -0.00148124772354     0.00000000000000     0.00000000000000     0.00000000000000
   23    -0.29206270125354     0.00000000000000     0.02637936079437     0.00192819882531    -0.41761386489968
   24     0.02106932030000     0.00000000000000    -0.00141563983631    -0.00178160729110     0.12998703012574

                21                  22                  23                  24

    1    -0.71163088237753     0.00000000000000    -0.01430611701015     0.00476668161629
    2    -0.91231604967903     0.00000000000000    -0.12472798459118     0.04140810447512
    3    -1.75747109948851     0.00000000000000    -0.50504507469224     0.16691103694631
    4     0.00000000000000    -0.02180587472875     0.00000000000000     0.00000000000000
    5     0.54487831846128     0.00000000000000     0.20128474724333    -0.07413231837513
    6    -0.19865911352878     0.00000000000000    -0.07500656051390     0.00307710721837
    7     0.00000000000000    -0.24755060671368     0.00000000000000     0.00000000000000
    8     1.43582614351163     0.00000000000000     1.00311719929949    -0.41346932990881
    9    -0.51174124162279     0.00000000000000    -0.41947805624725    -0.10915415710584
   10     0.11146712890989     0.00000000000000     0.15381336319169    -0.05099952005206
   11     0.00000000000000     0.05540094393962     0.00000000000000     0.00000000000000
   12     0.00000000000000    -0.01861803364125     0.00000000000000     0.00000000000000
   13    -0.14285422971608     0.00000000000000    -0.20095617637902     0.10388463318199
   14     0.10558548664268     0.00000000000000     0.17556449221035    -0.00908068485374
   15    -0.48292191763301     0.00000000000000    -0.02608469306565     0.00143651807492
   16    -1.15008061477918     0.00000000000000    -0.29206270125354     0.02106932030000
   17     0.00000000000000    -0.00148124772354     0.00000000000000     0.00000000000000
   18     0.50266097730417     0.00000000000000     0.02637936079437    -0.00141563983631
   19     0.12715630910015     0.00000000000000     0.00192819882531    -0.00178160729110
   20    -2.35896804822772     0.00000000000000    -0.41761386489968     0.12998703012574
   21    -3.02025646612590     0.00000000000000    -0.39170193705636     0.12192072685504
   22     0.00000000000000    -3.33588698260003     0.00000000000000     0.00000000000000
   23    -0.39170193705636     0.00000000000000    -3.51872394167256     0.05777141009075
   24     0.12192072685504     0.00000000000000     0.05777141009075    -3.35515507953411



  ## One Electron Ints (Symmetry 0) ##
  Irrep: 1 Size: 24 x 24

                 1                   2                   3                   4                   5

    1   -32.75961008592212     7.81168274310711    -5.87751600420778     0.00000000000000    -0.01344971130485
    2     7.81168274310711   -10.01169702402596    -4.85674906264570     0.00000000000000    -0.07470591268746
    3    -5.87751600420778    -4.85674906264570    -7.37826673547131     0.00000000000000    -0.07704000035427
    4     0.00000000000000     0.00000000000000     0.00000000000000    -8.21389921462608     0.00000000000000
    5    -0.01344971130485    -0.07470591268746    -0.07704000035427     0.00000000000000    -8.27777641592578
    6    -0.01744038868545    -0.09704606631311    -0.10159774579237     0.00000000000000    -0.03758366078726
    7     0.00000000000000     0.00000000000000     0.00000000000000    -3.64275864097668     0.00000000000000
    8    -0.00250199473431    -0.04990237016348    -0.08638775220359     0.00000000000000    -3.70227415458798
    9    -0.00326619691126    -0.06628207547715    -0.14444998765453     0.00000000000000    -0.03394060300041
   10     0.00176583334595     0.04305265882709     0.05969020534253     0.00000000000000     0.05262844173890
   11     0.00000000000000     0.00000000000000     0.00000000000000    -0.04975834277954     0.00000000000000
   12     0.00000000000000     0.00000000000000     0.00000000000000    -0.07174094452290     0.00000000000000
   13    -0.00097108550812    -0.02371545744314    -0.03333942955808     0.00000000000000    -0.05790800025016
   14    -0.00237650667365    -0.05782867086514    -0.07886496156547     0.00000000000000    -0.11816801910230
   15    -1.60876128738606    -2.08050362820883    -3.37397858437563     0.00000000000000    -1.73625014818800
   16    -2.08734893716730    -2.35947110249991    -4.08696869305569     0.00000000000000    -0.67075870532906
   17     0.00000000000000     0.00000000000000     0.00000000000000    -1.44886700476737     0.00000000000000
   18     2.65668968585553     2.21859743873560     2.80173314418236     0.00000000000000     1.26791735499854
   19     2.05617037082050     1.70993435245095     2.15276769122577     0.00000000000000     2.09898007466537
   20    -0.03784356458418    -0.13989186644117    -0.46454782651275     0.00000000000000     0.19027373821412
   21    -0.71141028467358    -0.90734552211993    -1.73500523801330     0.00000000000000     0.52650992498974
   22     0.00000000000000     0.00000000000000     0.00000000000000    -0.03111604146960     0.00000000000000
   23    -0.01860915696520    -0.16692981694264    -0.51026545783313     0.00000000000000     0.25058252174194
   24     0.00620184462919     0.05548338834419     0.16865215505705     0.00000000000000    -0.09367941772990

                 6                   7                   8                   9                  10

    1    -0.01744038868545     0.00000000000000    -0.00250199473431    -0.00326619691126     0.00176583334595
    2    -0.09704606631311     0.00000000000000    -0.04990237016348    -0.06628207547715     0.04305265882709
    3    -0.10159774579237     0.00000000000000    -0.08638775220359    -0.14444998765453     0.05969020534253
    4     0.00000000000000    -3.64275864097668     0.00000000000000     0.00000000000000     0.00000000000000
    5    -0.03758366078726     0.00000000000000    -3.70227415458798    -0.03394060300041     0.05262844173890
    6    -8.24695002752008     0.00000000000000    -0.03394060300041    -3.67307826278783     0.06251082258894
    7     0.00000000000000    -4.45650673542241     0.00000000000000     0.00000000000000     0.00000000000000
    8    -0.03394060300041     0.00000000000000    -4.62545419835894    -0.06866756787430     0.05326679347660
    9    -3.67307826278783     0.00000000000000    -0.06866756787430    -4.53038001208882     0.06372617334673
   10     0.06251082258894     0.00000000000000     0.05326679347660     0.06372617334673    -4.07669030325641
   11     0.00000000000000    -0.03876529709288     0.00000000000000     0.00000000000000     0.00000000000000
   12     0.00000000000000    -0.06171172656882     0.00000000000000     0.00000000000000     0.00000000000000
   13     0.06184484616757     0.00000000000000    -0.04857402955997     0.04831704358840     0.02580280842978
   14    -0.08300547754433     0.00000000000000    -0.12377165298890    -0.08245206019065     0.06620329389850
   15    -1.35420353233149     0.00000000000000    -2.47551395564772    -1.93271421209243     0.71188747164306
   16    -0.53818442106309     0.00000000000000    -1.34996948941602    -1.10230217023612     0.12154645405330
   17     0.00000000000000    -1.85118096060985     0.00000000000000     0.00000000000000     0.00000000000000
   18     2.11604068274665     0.00000000000000     0.08396856388311     1.51070995871495    -0.30690177190862
   19     0.18381033699028     0.00000000000000     1.48599150298356    -0.69601902269089    -0.23065470269553
   20    -0.06431170236714     0.00000000000000     0.93870973190798    -0.31571082045395     0.10390859165285
   21    -0.19253283090253     0.00000000000000     1.35249407365139    -0.48394807546564     0.10353366824395
   22     0.00000000000000    -0.24614914192354     0.00000000000000     0.00000000000000     0.00000000000000
   23    -0.09455365986867     0.00000000000000     0.88367200072389    -0.37917290842009     0.17301926941916
   24     0.00028634868577     0.00000000000000    -0.37316418208165    -0.12119538817611    -0.05740513248763

                11                  12                  13                  14                  15

    1     0.00000000000000     0.00000000000000    -0.00097108550812    -0.00237650667365    -1.60876128738606
    2     0.00000000000000     0.00000000000000    -0.02371545744314    -0.05782867086514    -2.08050362820883
    3     0.00000000000000     0.00000000000000    -0.03333942955808    -0.07886496156547    -3.37397858437563
    4    -0.04975834277954    -0.07174094452290     0.00000000000000     0.00000000000000     0.00000000000000
    5     0.00000000000000     0.00000000000000    -0.05790800025016    -0.11816801910230    -1.73625014818800
    6     0.00000000000000     0.00000000000000     0.06184484616757    -0.08300547754433    -1.35420353233149
    7    -0.03876529709288    -0.06171172656882     0.00000000000000     0.00000000000000     0.00000000000000
    8     0.00000000000000     0.00000000000000    -0.04857402955997    -0.12377165298890    -2.47551395564772
    9     0.00000000000000     0.00000000000000     0.04831704358840    -0.08245206019065    -1.93271421209243
   10     0.00000000000000     0.00000000000000     0.02580280842978     0.06620329389850     0.71188747164306
   11    -4.08624671307939    -0.03108406803155     0.00000000000000     0.00000000000000     0.00000000000000
   12    -0.03108406803155    -4.05726904533627     0.00000000000000     0.00000000000000     0.00000000000000
   13     0.00000000000000     0.00000000000000    -4.11970867120025    -0.01242256271407    -0.30153469557909
   14     0.00000000000000     0.00000000000000    -0.01242256271407    -4.16771215246982    -1.19204627206227
   15     0.00000000000000     0.00000000000000    -0.30153469557909    -1.19204627206227    -4.99462059193539
   16     0.00000000000000     0.00000000000000    -0.05113232495154    -0.19489484050926    -3.47595511428677
   17    -1.29967025926567    -1.01307349486092     0.00000000000000     0.00000000000000     0.00000000000000
   18     0.00000000000000     0.00000000000000    -0.85433007883997     0.75910732385567     1.18547827279535
   19     0.00000000000000     0.00000000000000     1.35869425069492     0.06786203289968     0.89611064063116
   20     0.00000000000000     0.00000000000000    -0.14285317576436     0.10877462762054    -0.03418724152709
   21     0.00000000000000     0.00000000000000    -0.13186412012439     0.09733703917806    -0.49323674223334
   22     0.07401927387439    -0.02482767583919     0.00000000000000     0.00000000000000     0.00000000000000
   23     0.00000000000000     0.00000000000000    -0.22383436214685     0.20049938291102    -0.03587703883180
   24     0.00000000000000     0.00000000000000     0.12393431988859    -0.00084977454252     0.00143651807492

                16                  17                  18                  19                  20

    1    -2.08734893716730     0.00000000000000     2.65668968585553     2.05617037082050    -0.03784356458418
    2    -2.35947110249991     0.00000000000000     2.21859743873560     1.70993435245095    -0.13989186644117
    3    -4.08696869305569     0.00000000000000     2.80173314418236     2.15276769122577    -0.46454782651275
    4     0.00000000000000    -1.44886700476737     0.00000000000000     0.00000000000000     0.00000000000000
    5    -0.67075870532906     0.00000000000000     1.26791735499854     2.09898007466537     0.19027373821412
    6    -0.53818442106309     0.00000000000000     2.11604068274665     0.18381033699028    -0.06431170236714
    7     0.00000000000000    -1.85118096060985     0.00000000000000     0.00000000000000     0.00000000000000
    8    -1.34996948941602     0.00000000000000     0.08396856388311     1.48599150298356     0.93870973190798
    9    -1.10230217023612     0.00000000000000     1.51070995871495    -0.69601902269089    -0.31571082045395
   10     0.12154645405330     0.00000000000000    -0.30690177190862    -0.23065470269553     0.10390859165285
   11     0.00000000000000    -1.29967025926567     0.00000000000000     0.00000000000000     0.00000000000000
   12     0.00000000000000    -1.01307349486092     0.00000000000000     0.00000000000000     0.00000000000000
   13    -0.05113232495154     0.00000000000000    -0.85433007883997     1.35869425069491    -0.14285317576436
   14    -0.19489484050926     0.00000000000000     0.75910732385567     0.06786203289968     0.10877462762054
   15    -3.47595511428677     0.00000000000000     1.18547827279535     0.89611064063116    -0.03418724152709
   16    -4.09449269147564     0.00000000000000     1.01259493875464     0.76361693009180    -0.32152813536621
   17     0.00000000000000    -3.25615173788454     0.00000000000000     0.00000000000000     0.00000000000000
   18     1.01259493875464     0.00000000000000    -4.05886173777695    -0.61393655145297     0.04248320536023
   19     0.76361693009180     0.00000000000000    -0.61393655145297    -3.73140513174378     0.00396555018925
   20    -0.32152813536621     0.00000000000000     0.04248320536023     0.00396555018925    -2.90457449073060
   21    -1.14628577227931     0.00000000000000     0.50073830566011     0.12715630910015    -2.15773391716234
   22     0.00000000000000    -0.00261551215198     0.00000000000000     0.00000000000000     0.00000000000000
   23    -0.29014002960949     0.00000000000000     0.04059363243238     0.00192819882531    -0.41761386489968
   24     0.02106932030000     0.00000000000000    -0.00141563983631    -0.00291587171954     0.12998703012574

                21                  22                  23                  24

    1    -0.71141028467358     0.00000000000000    -0.01860915696520     0.00620184462919
    2    -0.90734552211993     0.00000000000000    -0.16692981694264     0.05548338834419
    3    -1.73500523801330     0.00000000000000    -0.51026545783313     0.16865215505705
    4     0.00000000000000    -0.03111604146960     0.00000000000000     0.00000000000000
    5     0.52650992498974     0.00000000000000     0.25058252174194    -0.09367941772990
    6    -0.19253283090253     0.00000000000000    -0.09455365986867     0.00028634868577
    7     0.00000000000000    -0.24614914192354     0.00000000000000     0.00000000000000
    8     1.35249407365139     0.00000000000000     0.88367200072389    -0.37316418208165
    9    -0.48394807546564     0.00000000000000    -0.37917290842009    -0.12119538817611
   10     0.10353366824395     0.00000000000000     0.17301926941916    -0.05740513248763
   11     0.00000000000000     0.07401927387439     0.00000000000000     0.00000000000000
   12     0.00000000000000    -0.02482767583919     0.00000000000000     0.00000000000000
   13    -0.13186412012439     0.00000000000000    -0.22383436214685     0.12393431988859
   14     0.09733703917806     0.00000000000000     0.20049938291102    -0.00084977454252
   15    -0.49323674223334     0.00000000000000    -0.03587703883180     0.00143651807492
   16    -1.14628577227931     0.00000000000000    -0.29014002960949     0.02106932030000
   17     0.00000000000000    -0.00261551215198     0.00000000000000     0.00000000000000
   18     0.50073830566011     0.00000000000000     0.04059363243238    -0.00141563983631
   19     0.12715630910015     0.00000000000000     0.00192819882531    -0.00291587171954
   20    -2.15773391716234     0.00000000000000    -0.41761386489968     0.12998703012574
   21    -2.83725646612590     0.00000000000000    -0.39170193705636     0.12192072685504
   22     0.00000000000000    -1.51838698260003     0.00000000000000     0.00000000000000
   23    -0.39170193705636     0.00000000000000    -1.70122394167256     0.05777141009075
   24     0.12192072685504     0.00000000000000     0.05777141009075    -1.53765507953411




	There are 0 unique integrals

  ## Fock (Symmetry 0) ##
  Irrep: 1 Size: 24 x 24

                 1                   2                   3                   4                   5

    1   -31.31903317226239     4.73701082065342    -3.58580897600858     0.00000000000000     0.16211057718520
    2     4.73701082065342    -8.54354802151643    -0.88460361763115    -0.00000000000000     0.01065569570146
    3    -3.58580897600858    -0.88460361763115    -4.34663010839456    -0.00000000000000     0.05034796048761
    4     0.00000000000000    -0.00000000000000    -0.00000000000000    -8.18466073009218     0.00000000000000
    5     0.16211057718520     0.01065569570146     0.05034796048761     0.00000000000000    -8.24417321206908
    6     0.12608262649362    -0.03119053771233     0.03307545275334     0.00000000000000    -0.02038202440361
    7    -0.00000000000000     0.00000000000000    -0.00000000000000    -0.60803625509164    -0.00000000000000
    8     0.13626956413514     0.06674599084631     0.32287085343994     0.00000000000000    -0.55333534268868
    9     0.04860049864603     0.04535724000689     0.22120184925648    -0.00000000000000     0.02144584065771
   10    -0.05007643003056     0.01451193258245    -0.15972465798893     0.00000000000000     0.01571442943950
   11    -0.00000000000000     0.00000000000000     0.00000000000000    -0.02627111721448     0.00000000000000
   12     0.00000000000000    -0.00000000000000     0.00000000000000    -0.04841691919685    -0.00000000000000
   13     0.01899208484890    -0.01335552306398     0.06843319257422     0.00000000000000    -0.02301160538351
   14     0.10046412299741    -0.00015682695775     0.25988573028786     0.00000000000000    -0.06465686786220
   15    -0.53681500478666    -0.18262476633856    -0.55239146876346     0.00000000000000    -0.13850268469693
   16    -0.54948391115810    -0.24785722385409    -0.87557865878203    -0.00000000000000    -0.07686446448128
   17     0.00000000000000    -0.00000000000000    -0.00000000000000    -0.24541845887939     0.00000000000000
   18     1.41451422661823     0.53340371635484     0.83202323132365    -0.00000000000000     0.33397208990379
   19     1.11339231033012     0.42409590704780     0.63335455163240    -0.00000000000000     0.44955944416322
   20     0.05951205377387     0.00734858677881     0.02843125117864     0.00000000000000    -0.00440860331165
   21    -0.05024224594507    -0.03354722837967    -0.30586566472381    -0.00000000000000     0.08163116375433
   22     0.00000000000001    -0.00000000000000     0.00000000000000     0.01948620447527    -0.00000000000000
   23     0.16536140788892     0.08920760795922    -0.16645749313578     0.00000000000000    -0.00977925778106
   24    -0.05152924822315    -0.02527212082089     0.01205721026917     0.00000000000000     0.00589532192675

                 6                   7                   8                   9                  10

    1     0.12608262649362    -0.00000000000000     0.13626956413514     0.04860049864603    -0.05007643003056
    2    -0.03119053771233     0.00000000000000     0.06674599084631     0.04535724000689     0.01451193258245
    3     0.03307545275334    -0.00000000000000     0.32287085343995     0.22120184925648    -0.15972465798893
    4     0.00000000000000    -0.60803625509164     0.00000000000000    -0.00000000000000     0.00000000000000
    5    -0.02038202440361    -0.00000000000000    -0.55333534268868     0.02144584065771     0.01571442943950
    6    -8.20753562299247     0.00000000000000     0.02244817102195    -0.58794360801662     0.03400861171427
    7     0.00000000000000    -3.75431190845296    -0.00000000000000     0.00000000000000    -0.00000000000000
    8     0.02244817102195    -0.00000000000000    -3.54255099464302     0.11661890804139    -0.09387352427968
    9    -0.58794360801662     0.00000000000000     0.11661890804139    -3.65925978711526    -0.07947486728614
   10     0.03400861171427    -0.00000000000000    -0.09387352427968    -0.07947486728614    -4.00778440513815
   11     0.00000000000000     0.07792591026699     0.00000000000000     0.00000000000000     0.00000000000000
   12     0.00000000000000     0.03663878977494    -0.00000000000000     0.00000000000000    -0.00000000000000
   13     0.04378133513484    -0.00000000000000     0.08477003785284    -0.00949094839168    -0.00479078135505
   14    -0.03124239553923    -0.00000000000000     0.18859321146923     0.16235815445670    -0.04197345044684
   15    -0.10904923929449    -0.00000000000000    -0.50241460456580    -0.36907863760576     0.34990205131814
   16    -0.05059507765290     0.00000000000000    -0.19380394154342    -0.13598399362333    -0.01214644977800
   17    -0.00000000000000    -0.36123529156807     0.00000000000000    -0.00000000000000     0.00000000000000
   18     0.45212970685561    -0.00000000000000     0.19413768398798     0.43834748127653    -0.12802089978976
   19     0.10776511420677     0.00000000000000     0.45907574934766    -0.03635338208478    -0.09003611368313
   20    -0.00258802476469     0.00000000000000     0.04828451945205    -0.02204343699184     0.03221983055797
   21    -0.01045207370670     0.00000000000000     0.29824262870737    -0.05028265699593     0.02625491116926
   22    -0.00000000000000    -0.09062413909065    -0.00000000000000     0.00000000000000     0.00000000000000
   23     0.00690084486178     0.00000000000000     0.29686531454823    -0.11470600993779     0.09766832484717
   24     0.01466125084126    -0.00000000000000    -0.15689637364581    -0.07686914281910    -0.01847030781208

                11                  12                  13                  14                  15

    1    -0.00000000000000     0.00000000000000     0.01899208484890     0.10046412299741    -0.53681500478666
    2     0.00000000000000    -0.00000000000000    -0.01335552306398    -0.00015682695775    -0.18262476633856
    3     0.00000000000000     0.00000000000000     0.06843319257422     0.25988573028787    -0.55239146876346
    4    -0.02627111721448    -0.04841691919685     0.00000000000000     0.00000000000000     0.00000000000000
    5     0.00000000000000    -0.00000000000000    -0.02301160538351    -0.06465686786220    -0.13850268469693
    6     0.00000000000000     0.00000000000000     0.04378133513484    -0.03124239553923    -0.10904923929449
    7     0.07792591026699     0.03663878977494    -0.00000000000000    -0.00000000000000    -0.00000000000000
    8     0.00000000000000    -0.00000000000000     0.08477003785283     0.18859321146923    -0.50241460456579
    9     0.00000000000000     0.00000000000000    -0.00949094839168     0.16235815445670    -0.36907863760576
   10     0.00000000000000    -0.00000000000000    -0.00479078135505    -0.04197345044684     0.34990205131814
   11    -3.98395640786683     0.04761198251618    -0.00000000000000     0.00000000000000     0.00000000000000
   12     0.04761198251618    -3.99624601736825    -0.00000000000000    -0.00000000000000    -0.00000000000000
   13    -0.00000000000000    -0.00000000000000    -3.95231856344188    -0.00825297529661    -0.14908426521006
   14     0.00000000000000    -0.00000000000000    -0.00825297529661    -3.96357085654147    -0.59510145674244
   15     0.00000000000000    -0.00000000000000    -0.14908426521006    -0.59510145674244    -3.94433687582330
   16    -0.00000000000000    -0.00000000000000     0.00950748360671    -0.00457660947867    -0.36587386519196
   17    -0.47164435593120    -0.36685518630273     0.00000000000000    -0.00000000000000     0.00000000000000
   18    -0.00000000000000     0.00000000000000    -0.30509161181199     0.29980204715499     0.21229298696674
   19     0.00000000000000     0.00000000000000     0.48988539660136     0.04972361808854     0.14311842205167
[...]
 sum -  nocc_ = 0.00000000
 ef = -0.18011 sum = 5.00000 

 Iter: 179  T:     2000.000  val:-0.180112  sumni 0.00000
 ne = 5.0000

 iter:180  failiter:180  energy:    -82.728694759217  total:    -75.810324950600  error:     -0.000038514471
 In Bisection function HOMO = -20.593  LUMO =  4.056

 -8.26810 = (-20.59267 + 4.05646)/2.0
 sum -  nocc_ = -4.00000000
 On Iteration in Bisection 0
 a: -4.00000  b:-4.50000

 -2.10582 = (-8.26810 + 4.05646)/2.0
 sum -  nocc_ = -4.00000000
 On Iteration in Bisection 1
 a: -4.00000  b:-4.00000

 0.97532 = (-2.10582 + 4.05646)/2.0
 sum -  nocc_ = 4.00000000
 On Iteration in Bisection 2
 a: 4.00000  b:-4.00000

 -0.56525 = (-2.10582 + 0.97532)/2.0
 sum -  nocc_ = -2.00013935
 On Iteration in Bisection 3
 a: -2.00014  b:-4.00000

 0.20503 = (-0.56525 + 0.97532)/2.0
 sum -  nocc_ = 1.06903392
 On Iteration in Bisection 4
 a: 1.06903  b:-2.00014

 -0.18011 = (-0.56525 + 0.20503)/2.0
 sum -  nocc_ = 0.00000000
 ef = -0.18011 sum = 5.00000 

 Iter: 180  T:     2000.000  val:-0.180109  sumni 0.00000
 ne = 5.0000

 iter:181  failiter:181  energy:    -82.728659632915  total:    -75.810289824298  error:      0.000035126303
 In Bisection function HOMO = -20.593  LUMO =  4.056

 -8.26811 = (-20.59268 + 4.05646)/2.0
 sum -  nocc_ = -4.00000000
 On Iteration in Bisection 0
 a: -4.00000  b:-4.50000

 -2.10583 = (-8.26811 + 4.05646)/2.0
 sum -  nocc_ = -4.00000000
 On Iteration in Bisection 1
 a: -4.00000  b:-4.00000

 0.97532 = (-2.10583 + 4.05646)/2.0
 sum -  nocc_ = 4.00000000
 On Iteration in Bisection 2
 a: 4.00000  b:-4.00000

 -0.56525 = (-2.10583 + 0.97532)/2.0
 sum -  nocc_ = -2.00013938
 On Iteration in Bisection 3
 a: -2.00014  b:-4.00000

 0.20503 = (-0.56525 + 0.97532)/2.0
 sum -  nocc_ = 1.06900606
 On Iteration in Bisection 4
 a: 1.06901  b:-2.00014

 -0.18011 = (-0.56525 + 0.20503)/2.0
 sum -  nocc_ = 0.00000000
 ef = -0.18011 sum = 5.00000 

 Iter: 181  T:     2000.000  val:-0.180112  sumni 0.00000
 ne = 5.0000

 iter:182  failiter:182  energy:    -82.728691669111  total:    -75.810321860494  error:     -0.000032036196
 In Bisection function HOMO = -20.593  LUMO =  4.056

 -8.26810 = (-20.59267 + 4.05646)/2.0
 sum -  nocc_ = -4.00000000
 On Iteration in Bisection 0
 a: -4.00000  b:-4.50000

 -2.10582 = (-8.26810 + 4.05646)/2.0
 sum -  nocc_ = -4.00000000
 On Iteration in Bisection 1
 a: -4.00000  b:-4.00000

 0.97532 = (-2.10582 + 4.05646)/2.0
 sum -  nocc_ = 4.00000000
 On Iteration in Bisection 2
 a: 4.00000  b:-4.00000

 -0.56525 = (-2.10582 + 0.97532)/2.0
 sum -  nocc_ = -2.00013936
 On Iteration in Bisection 3
 a: -2.00014  b:-4.00000

 0.20503 = (-0.56525 + 0.97532)/2.0
 sum -  nocc_ = 1.06903147
 On Iteration in Bisection 4
 a: 1.06903  b:-2.00014

 -0.18011 = (-0.56525 + 0.20503)/2.0
 sum -  nocc_ = 0.00000000
 ef = -0.18011 sum = 5.00000 

 Iter: 182  T:     2000.000  val:-0.180109  sumni 0.00000
 ne = 5.0000

 iter:183  failiter:183  energy:    -82.728662451180  total:    -75.810292642563  error:      0.000029217931
 In Bisection function HOMO = -20.593  LUMO =  4.056

 -8.26811 = (-20.59268 + 4.05646)/2.0
 sum -  nocc_ = -4.00000000
 On Iteration in Bisection 0
 a: -4.00000  b:-4.50000

 -2.10583 = (-8.26811 + 4.05646)/2.0
 sum -  nocc_ = -4.00000000
 On Iteration in Bisection 1
 a: -4.00000  b:-4.00000

 0.97532 = (-2.10583 + 4.05646)/2.0
 sum -  nocc_ = 4.00000000
 On Iteration in Bisection 2
 a: 4.00000  b:-4.00000

 -0.56525 = (-2.10583 + 0.97532)/2.0
 sum -  nocc_ = -2.00013938
 On Iteration in Bisection 3
 a: -2.00014  b:-4.00000

 0.20503 = (-0.56525 + 0.97532)/2.0
 sum -  nocc_ = 1.06900829
 On Iteration in Bisection 4
 a: 1.06901  b:-2.00014

 -0.18011 = (-0.56525 + 0.20503)/2.0
 sum -  nocc_ = 0.00000000
 ef = -0.18011 sum = 5.00000 

 Iter: 183  T:     2000.000  val:-0.180112  sumni 0.00000
 ne = 5.0000

 iter:184  failiter:184  energy:    -82.728689098772  total:    -75.810319290155  error:     -0.000026647591
 In Bisection function HOMO = -20.593  LUMO =  4.056

 -8.26811 = (-20.59267 + 4.05646)/2.0
 sum -  nocc_ = -4.00000000
 On Iteration in Bisection 0
 a: -4.00000  b:-4.50000

 -2.10582 = (-8.26811 + 4.05646)/2.0
 sum -  nocc_ = -4.00000000
 On Iteration in Bisection 1
 a: -4.00000  b:-4.00000

 0.97532 = (-2.10582 + 4.05646)/2.0
 sum -  nocc_ = 4.00000000
 On Iteration in Bisection 2
 a: 4.00000  b:-4.00000

 -0.56525 = (-2.10582 + 0.97532)/2.0
 sum -  nocc_ = -2.00013936
 On Iteration in Bisection 3
 a: -2.00014  b:-4.00000

 0.20503 = (-0.56525 + 0.97532)/2.0
 sum -  nocc_ = 1.06902943
 On Iteration in Bisection 4
 a: 1.06903  b:-2.00014

 -0.18011 = (-0.56525 + 0.20503)/2.0
 sum -  nocc_ = 0.00000000
 ef = -0.18011 sum = 5.00000 

 Iter: 184  T:     2000.000  val:-0.180109  sumni 0.00000
 ne = 5.0000

 iter:185  failiter:185  energy:    -82.728664795404  total:    -75.810294986787  error:      0.000024303368
 In Bisection function HOMO = -20.593  LUMO =  4.056

 -8.26811 = (-20.59268 + 4.05646)/2.0
 sum -  nocc_ = -4.00000000
 On Iteration in Bisection 0
 a: -4.00000  b:-4.50000

 -2.10583 = (-8.26811 + 4.05646)/2.0
 sum -  nocc_ = -4.00000000
 On Iteration in Bisection 1
 a: -4.00000  b:-4.00000

 0.97532 = (-2.10583 + 4.05646)/2.0
 sum -  nocc_ = 4.00000000
 On Iteration in Bisection 2
 a: 4.00000  b:-4.00000

 -0.56525 = (-2.10583 + 0.97532)/2.0
 sum -  nocc_ = -2.00013938
 On Iteration in Bisection 3
 a: -2.00014  b:-4.00000

 0.20503 = (-0.56525 + 0.97532)/2.0
 sum -  nocc_ = 1.06901015
 On Iteration in Bisection 4
 a: 1.06901  b:-2.00014

 -0.18011 = (-0.56525 + 0.20503)/2.0
 sum -  nocc_ = 0.00000000
 ef = -0.18011 sum = 5.00000 

 Iter: 185  T:     2000.000  val:-0.180112  sumni 0.00000
 ne = 5.0000

 iter:186  failiter:186  energy:    -82.728686960773  total:    -75.810317152156  error:     -0.000022165370
 In Bisection function HOMO = -20.593  LUMO =  4.056

 -8.26811 = (-20.59267 + 4.05646)/2.0
 sum -  nocc_ = -4.00000000
 On Iteration in Bisection 0
 a: -4.00000  b:-4.50000

 -2.10582 = (-8.26811 + 4.05646)/2.0
 sum -  nocc_ = -4.00000000
 On Iteration in Bisection 1
 a: -4.00000  b:-4.00000

 0.97532 = (-2.10582 + 4.05646)/2.0
 sum -  nocc_ = 4.00000000
 On Iteration in Bisection 2
 a: 4.00000  b:-4.00000

 -0.56525 = (-2.10582 + 0.97532)/2.0
 sum -  nocc_ = -2.00013936
 On Iteration in Bisection 3
 a: -2.00014  b:-4.00000

 0.20503 = (-0.56525 + 0.97532)/2.0
 sum -  nocc_ = 1.06902774
 On Iteration in Bisection 4
 a: 1.06903  b:-2.00014

 -0.18011 = (-0.56525 + 0.20503)/2.0
 sum -  nocc_ = 0.00000000
 ef = -0.18011 sum = 5.00000 

 Iter: 186  T:     2000.000  val:-0.180109  sumni 0.00000
 ne = 5.0000

 iter:187  failiter:187  energy:    -82.728666745320  total:    -75.810296936703  error:      0.000020215453
 In Bisection function HOMO = -20.593  LUMO =  4.056

 -8.26811 = (-20.59267 + 4.05646)/2.0
 sum -  nocc_ = -4.00000000
 On Iteration in Bisection 0
 a: -4.00000  b:-4.50000

 -2.10582 = (-8.26811 + 4.05646)/2.0
 sum -  nocc_ = -4.00000000
 On Iteration in Bisection 1
 a: -4.00000  b:-4.00000

 0.97532 = (-2.10582 + 4.05646)/2.0
 sum -  nocc_ = 4.00000000
 On Iteration in Bisection 2
 a: 4.00000  b:-4.00000

 -0.56525 = (-2.10582 + 0.97532)/2.0
 sum -  nocc_ = -2.00013938
 On Iteration in Bisection 3
 a: -2.00014  b:-4.00000

 0.20503 = (-0.56525 + 0.97532)/2.0
 sum -  nocc_ = 1.06901170
 On Iteration in Bisection 4
 a: 1.06901  b:-2.00014

 -0.18011 = (-0.56525 + 0.20503)/2.0
 sum -  nocc_ = 0.00000000
 ef = -0.18011 sum = 5.00000 

 Iter: 187  T:     2000.000  val:-0.180111  sumni 0.00000
 ne = 5.0000

 iter:188  failiter:188  energy:    -82.728685182393  total:    -75.810315373776  error:     -0.000018437073
 In Bisection function HOMO = -20.593  LUMO =  4.056

 -8.26811 = (-20.59267 + 4.05646)/2.0
 sum -  nocc_ = -4.00000000
 On Iteration in Bisection 0
 a: -4.00000  b:-4.50000

 -2.10582 = (-8.26811 + 4.05646)/2.0
 sum -  nocc_ = -4.00000000
 On Iteration in Bisection 1
 a: -4.00000  b:-4.00000

 0.97532 = (-2.10582 + 4.05646)/2.0
 sum -  nocc_ = 4.00000000
 On Iteration in Bisection 2
 a: 4.00000  b:-4.00000

 -0.56525 = (-2.10582 + 0.97532)/2.0
 sum -  nocc_ = -2.00013936
 On Iteration in Bisection 3
 a: -2.00014  b:-4.00000

 0.20503 = (-0.56525 + 0.97532)/2.0
 sum -  nocc_ = 1.06902633
 On Iteration in Bisection 4
 a: 1.06903  b:-2.00014

 -0.18011 = (-0.56525 + 0.20503)/2.0
 sum -  nocc_ = 0.00000000
 ef = -0.18011 sum = 5.00000 

 Iter: 188  T:     2000.000  val:-0.180110  sumni 0.00000
 ne = 5.0000

 iter:189  failiter:189  energy:    -82.728668367253  total:    -75.810298558636  error:      0.000016815140
 In Bisection function HOMO = -20.593  LUMO =  4.056

 -8.26811 = (-20.59267 + 4.05646)/2.0
 sum -  nocc_ = -4.00000000
 On Iteration in Bisection 0
 a: -4.00000  b:-4.50000

 -2.10582 = (-8.26811 + 4.05646)/2.0
 sum -  nocc_ = -4.00000000
 On Iteration in Bisection 1
 a: -4.00000  b:-4.00000

 0.97532 = (-2.10582 + 4.05646)/2.0
 sum -  nocc_ = 4.00000000
 On Iteration in Bisection 2
 a: 4.00000  b:-4.00000

 -0.56525 = (-2.10582 + 0.97532)/2.0
 sum -  nocc_ = -2.00013937
 On Iteration in Bisection 3
 a: -2.00014  b:-4.00000

 0.20503 = (-0.56525 + 0.97532)/2.0
 sum -  nocc_ = 1.06901299
 On Iteration in Bisection 4
 a: 1.06901  b:-2.00014

 -0.18011 = (-0.56525 + 0.20503)/2.0
 sum -  nocc_ = 0.00000000
 ef = -0.18011 sum = 5.00000 

 Iter: 189  T:     2000.000  val:-0.180111  sumni 0.00000
 ne = 5.0000

 iter:190  failiter:190  energy:    -82.728683703144  total:    -75.810313894527  error:     -0.000015335891
 In Bisection function HOMO = -20.593  LUMO =  4.056

 -8.26811 = (-20.59267 + 4.05646)/2.0
 sum -  nocc_ = -4.00000000
 On Iteration in Bisection 0
 a: -4.00000  b:-4.50000

 -2.10582 = (-8.26811 + 4.05646)/2.0
 sum -  nocc_ = -4.00000000
 On Iteration in Bisection 1
 a: -4.00000  b:-4.00000

 0.97532 = (-2.10582 + 4.05646)/2.0
 sum -  nocc_ = 4.00000000
 On Iteration in Bisection 2
 a: 4.00000  b:-4.00000

 -0.56525 = (-2.10582 + 0.97532)/2.0
 sum -  nocc_ = -2.00013936
 On Iteration in Bisection 3
 a: -2.00014  b:-4.00000

 0.20503 = (-0.56525 + 0.97532)/2.0
 sum -  nocc_ = 1.06902515
 On Iteration in Bisection 4
 a: 1.06903  b:-2.00014

 -0.18011 = (-0.56525 + 0.20503)/2.0
 sum -  nocc_ = 0.00000000
 ef = -0.18011 sum = 5.00000 

 Iter: 190  T:     2000.000  val:-0.180110  sumni 0.00000
 ne = 5.0000

 iter:191  failiter:191  energy:    -82.728669716371  total:    -75.810299907754  error:      0.000013986772
 In Bisection function HOMO = -20.593  LUMO =  4.056

 -8.26811 = (-20.59267 + 4.05646)/2.0
 sum -  nocc_ = -4.00000000
 On Iteration in Bisection 0
 a: -4.00000  b:-4.50000

 -2.10582 = (-8.26811 + 4.05646)/2.0
 sum -  nocc_ = -4.00000000
 On Iteration in Bisection 1
 a: -4.00000  b:-4.00000

 0.97532 = (-2.10582 + 4.05646)/2.0
 sum -  nocc_ = 4.00000000
 On Iteration in Bisection 2
 a: 4.00000  b:-4.00000

 -0.56525 = (-2.10582 + 0.97532)/2.0
 sum -  nocc_ = -2.00013937
 On Iteration in Bisection 3
 a: -2.00014  b:-4.00000

 0.20503 = (-0.56525 + 0.97532)/2.0
 sum -  nocc_ = 1.06901406
 On Iteration in Bisection 4
 a: 1.06901  b:-2.00014

 -0.18011 = (-0.56525 + 0.20503)/2.0
 sum -  nocc_ = 0.00000000
 ef = -0.18011 sum = 5.00000 

 Iter: 191  T:     2000.000  val:-0.180111  sumni 0.00000
 ne = 5.0000

 iter:192  failiter:192  energy:    -82.728682472709  total:    -75.810312664092  error:     -0.000012756338
 In Bisection function HOMO = -20.593  LUMO =  4.056

 -8.26811 = (-20.59267 + 4.05646)/2.0
 sum -  nocc_ = -4.00000000
 On Iteration in Bisection 0
 a: -4.00000  b:-4.50000

 -2.10582 = (-8.26811 + 4.05646)/2.0
 sum -  nocc_ = -4.00000000
 On Iteration in Bisection 1
 a: -4.00000  b:-4.00000

 0.97532 = (-2.10582 + 4.05646)/2.0
 sum -  nocc_ = 4.00000000
 On Iteration in Bisection 2
 a: 4.00000  b:-4.00000

 -0.56525 = (-2.10582 + 0.97532)/2.0
 sum -  nocc_ = -2.00013936
 On Iteration in Bisection 3
 a: -2.00014  b:-4.00000

 0.20503 = (-0.56525 + 0.97532)/2.0
 sum -  nocc_ = 1.06902418
 On Iteration in Bisection 4
 a: 1.06902  b:-2.00014

 -0.18011 = (-0.56525 + 0.20503)/2.0
 sum -  nocc_ = 0.00000000
 ef = -0.18011 sum = 5.00000 

 Iter: 192  T:     2000.000  val:-0.180110  sumni 0.00000
 ne = 5.0000

 iter:193  failiter:193  energy:    -82.728670838563  total:    -75.810301029946  error:      0.000011634146
 In Bisection function HOMO = -20.593  LUMO =  4.056

 -8.26811 = (-20.59267 + 4.05646)/2.0
 sum -  nocc_ = -4.00000000
 On Iteration in Bisection 0
 a: -4.00000  b:-4.50000

 -2.10582 = (-8.26811 + 4.05646)/2.0
 sum -  nocc_ = -4.00000000
 On Iteration in Bisection 1
 a: -4.00000  b:-4.00000

 0.97532 = (-2.10582 + 4.05646)/2.0
 sum -  nocc_ = 4.00000000
 On Iteration in Bisection 2
 a: 4.00000  b:-4.00000

 -0.56525 = (-2.10582 + 0.97532)/2.0
 sum -  nocc_ = -2.00013937
 On Iteration in Bisection 3
 a: -2.00014  b:-4.00000

 0.20503 = (-0.56525 + 0.97532)/2.0
 sum -  nocc_ = 1.06901495
 On Iteration in Bisection 4
 a: 1.06901  b:-2.00014

 -0.18011 = (-0.56525 + 0.20503)/2.0
 sum -  nocc_ = 0.00000000
 ef = -0.18011 sum = 5.00000 

 Iter: 193  T:     2000.000  val:-0.180111  sumni 0.00000
 ne = 5.0000

 iter:194  failiter:194  energy:    -82.728681449238  total:    -75.810311640621  error:     -0.000010610675
 In Bisection function HOMO = -20.593  LUMO =  4.056

 -8.26811 = (-20.59267 + 4.05646)/2.0
 sum -  nocc_ = -4.00000000
 On Iteration in Bisection 0
 a: -4.00000  b:-4.50000

 -2.10582 = (-8.26811 + 4.05646)/2.0
 sum -  nocc_ = -4.00000000
 On Iteration in Bisection 1
 a: -4.00000  b:-4.00000

 0.97532 = (-2.10582 + 4.05646)/2.0
 sum -  nocc_ = 4.00000000
 On Iteration in Bisection 2
 a: 4.00000  b:-4.00000

 -0.56525 = (-2.10582 + 0.97532)/2.0
 sum -  nocc_ = -2.00013936
 On Iteration in Bisection 3
 a: -2.00014  b:-4.00000

 0.20503 = (-0.56525 + 0.97532)/2.0
 sum -  nocc_ = 1.06902336
 On Iteration in Bisection 4
 a: 1.06902  b:-2.00014

 -0.18011 = (-0.56525 + 0.20503)/2.0
 sum -  nocc_ = 0.00000000
 ef = -0.18011 sum = 5.00000 

 Iter: 194  T:     2000.000  val:-0.180110  sumni 0.00000
 ne = 5.0000

 iter:195  failiter:195  energy:    -82.728671771998  total:    -75.810301963381  error:      0.000009677240
 In Bisection function HOMO = -20.593  LUMO =  4.056

 -8.26811 = (-20.59267 + 4.05646)/2.0
 sum -  nocc_ = -4.00000000
 On Iteration in Bisection 0
 a: -4.00000  b:-4.50000

 -2.10582 = (-8.26811 + 4.05646)/2.0
 sum -  nocc_ = -4.00000000
 On Iteration in Bisection 1
 a: -4.00000  b:-4.00000

 0.97532 = (-2.10582 + 4.05646)/2.0
 sum -  nocc_ = 4.00000000
 On Iteration in Bisection 2
 a: 4.00000  b:-4.00000

 -0.56525 = (-2.10582 + 0.97532)/2.0
 sum -  nocc_ = -2.00013937
 On Iteration in Bisection 3
 a: -2.00014  b:-4.00000

 0.20503 = (-0.56525 + 0.97532)/2.0
 sum -  nocc_ = 1.06901569
 On Iteration in Bisection 4
 a: 1.06902  b:-2.00014

 -0.18011 = (-0.56525 + 0.20503)/2.0
 sum -  nocc_ = 0.00000000
 ef = -0.18011 sum = 5.00000 

 Iter: 195  T:     2000.000  val:-0.180111  sumni 0.00000
 ne = 5.0000

 iter:196  failiter:196  energy:    -82.728680597919  total:    -75.810310789302  error:     -0.000008825921
 In Bisection function HOMO = -20.593  LUMO =  4.056

 -8.26811 = (-20.59267 + 4.05646)/2.0
 sum -  nocc_ = -4.00000000
 On Iteration in Bisection 0
 a: -4.00000  b:-4.50000

 -2.10582 = (-8.26811 + 4.05646)/2.0
 sum -  nocc_ = -4.00000000
 On Iteration in Bisection 1
 a: -4.00000  b:-4.00000

 0.97532 = (-2.10582 + 4.05646)/2.0
 sum -  nocc_ = 4.00000000
 On Iteration in Bisection 2
 a: 4.00000  b:-4.00000

 -0.56525 = (-2.10582 + 0.97532)/2.0
 sum -  nocc_ = -2.00013936
 On Iteration in Bisection 3
 a: -2.00014  b:-4.00000

 0.20503 = (-0.56525 + 0.97532)/2.0
 sum -  nocc_ = 1.06902269
 On Iteration in Bisection 4
 a: 1.06902  b:-2.00014

 -0.18011 = (-0.56525 + 0.20503)/2.0
 sum -  nocc_ = 0.00000000
 ef = -0.18011 sum = 5.00000 

 Iter: 196  T:     2000.000  val:-0.180110  sumni 0.00000
 ne = 5.0000

 iter:197  failiter:197  energy:    -82.728672548426  total:    -75.810302739809  error:      0.000008049493
 In Bisection function HOMO = -20.593  LUMO =  4.056

 -8.26811 = (-20.59267 + 4.05646)/2.0
 sum -  nocc_ = -4.00000000
 On Iteration in Bisection 0
 a: -4.00000  b:-4.50000

 -2.10582 = (-8.26811 + 4.05646)/2.0
 sum -  nocc_ = -4.00000000
 On Iteration in Bisection 1
 a: -4.00000  b:-4.00000

 0.97532 = (-2.10582 + 4.05646)/2.0
 sum -  nocc_ = 4.00000000
 On Iteration in Bisection 2
 a: 4.00000  b:-4.00000

 -0.56525 = (-2.10582 + 0.97532)/2.0
 sum -  nocc_ = -2.00013937
 On Iteration in Bisection 3
 a: -2.00014  b:-4.00000

 0.20503 = (-0.56525 + 0.97532)/2.0
 sum -  nocc_ = 1.06901630
 On Iteration in Bisection 4
 a: 1.06902  b:-2.00014

 -0.18011 = (-0.56525 + 0.20503)/2.0
 sum -  nocc_ = 0.00000000
 ef = -0.18011 sum = 5.00000 

 Iter: 197  T:     2000.000  val:-0.180111  sumni 0.00000
 ne = 5.0000

 iter:198  failiter:198  energy:    -82.728679889795  total:    -75.810310081178  error:     -0.000007341369
 In Bisection function HOMO = -20.593  LUMO =  4.056

 -8.26811 = (-20.59267 + 4.05646)/2.0
 sum -  nocc_ = -4.00000000
 On Iteration in Bisection 0
 a: -4.00000  b:-4.50000

 -2.10582 = (-8.26811 + 4.05646)/2.0
 sum -  nocc_ = -4.00000000
 On Iteration in Bisection 1
 a: -4.00000  b:-4.00000

 0.97532 = (-2.10582 + 4.05646)/2.0
 sum -  nocc_ = 4.00000000
 On Iteration in Bisection 2
 a: 4.00000  b:-4.00000

 -0.56525 = (-2.10582 + 0.97532)/2.0
 sum -  nocc_ = -2.00013936
 On Iteration in Bisection 3
 a: -2.00014  b:-4.00000

 0.20503 = (-0.56525 + 0.97532)/2.0
 sum -  nocc_ = 1.06902213
 On Iteration in Bisection 4
 a: 1.06902  b:-2.00014

 -0.18011 = (-0.56525 + 0.20503)/2.0
 sum -  nocc_ = 0.00000000
 ef = -0.18011 sum = 5.00000 

 Iter: 198  T:     2000.000  val:-0.180110  sumni 0.00000
 ne = 5.0000

 iter:199  failiter:199  energy:    -82.728673194255  total:    -75.810303385638  error:      0.000006695539
 In Bisection function HOMO = -20.593  LUMO =  4.056

 -8.26811 = (-20.59267 + 4.05646)/2.0
 sum -  nocc_ = -4.00000000
 On Iteration in Bisection 0
 a: -4.00000  b:-4.50000

 -2.10582 = (-8.26811 + 4.05646)/2.0
 sum -  nocc_ = -4.00000000
 On Iteration in Bisection 1
 a: -4.00000  b:-4.00000

 0.97532 = (-2.10582 + 4.05646)/2.0
 sum -  nocc_ = 4.00000000
 On Iteration in Bisection 2
 a: 4.00000  b:-4.00000

 -0.56525 = (-2.10582 + 0.97532)/2.0
 sum -  nocc_ = -2.00013937
 On Iteration in Bisection 3
 a: -2.00014  b:-4.00000

 0.20503 = (-0.56525 + 0.97532)/2.0
 sum -  nocc_ = 1.06901681
 On Iteration in Bisection 4
 a: 1.06902  b:-2.00014

 -0.18011 = (-0.56525 + 0.20503)/2.0
 sum -  nocc_ = 0.00000000
 ef = -0.18011 sum = 5.00000 

 Iter: 199  T:     2000.000  val:-0.180111  sumni 0.00000
 ne = 5.0000

 iter:200  failiter:200  energy:    -82.728679300779  total:    -75.810309492162  error:     -0.000006106524
 CALCULATION FAILED 

 FD_dis[0] = 1.00000000 with -20.592674 eig value
 FD_dis[1] = 1.00000000 with -1.269629 eig value
 FD_dis[2] = 1.00000000 with -0.621171 eig value
 FD_dis[3] = 1.00000000 with -0.490088 eig value
 FD_dis[4] = 1.00000000 with -0.422520 eig value
 FD_dis[5] = 0.00000000 with -0.005443 eig value
 FD_dis[6] = 0.00000000 with 0.221510 eig value
 FD_dis[7] = 0.00000000 with 0.618795 eig value
 FD_dis[8] = 0.00000000 with 0.839147 eig value
 FD_dis[9] = 0.00000000 with 1.154177 eig value
 FD_dis[10] = 0.00000000 with 1.178992 eig value
 FD_dis[11] = 0.00000000 with 1.216711 eig value
 FD_dis[12] = 0.00000000 with 1.445743 eig value
 FD_dis[13] = 0.00000000 with 1.461726 eig value
 FD_dis[14] = 0.00000000 with 1.525381 eig value
 FD_dis[15] = 0.00000000 with 1.593740 eig value
 FD_dis[16] = 0.00000000 with 1.649006 eig value
 FD_dis[17] = 0.00000000 with 2.024511 eig value
 FD_dis[18] = 0.00000000 with 2.455988 eig value
 FD_dis[19] = 0.00000000 with 2.976358 eig value
 FD_dis[20] = 0.00000000 with 3.004223 eig value
 FD_dis[21] = 0.00000000 with 3.315146 eig value
 FD_dis[22] = 0.00000000 with 3.323082 eig value
 FD_dis[23] = 0.00000000 with 4.056459 eig value
*** PSI4 exiting successfully. Buy a developer a beer!
