    -----------------------------------------------------------------------
          PSI4: An Open-Source Ab Initio Electronic Structure Package
                              PSI 4.0 Driver

               Git: Rev {master} 556e8139d3cfa1f96ccffe2cdf22cc56a185d2b2

    J. M. Turney, A. C. Simmonett, R. M. Parrish, E. G. Hohenstein,
    F. A. Evangelista, J. T. Fermann, B. J. Mintz, L. A. Burns, J. J. Wilke,
    M. L. Abrams, N. J. Russ, M. L. Leininger, C. L. Janssen, E. T. Seidl,
    W. D. Allen, H. F. Schaefer, R. A. King, E. F. Valeev, C. D. Sherrill,
    and T. D. Crawford, WIREs Comput. Mol. Sci. 2, 556-565 (2012)
    (doi: 10.1002/wcms.93)

                         Additional Contributions by
    A. E. DePrince, M. Saitow, U. Bozkaya, A. Yu. Sokolov
    -----------------------------------------------------------------------

    Process ID:  14556
    PSI4DATADIR: /Users/kevinhannon/Programs/psi4cmake/psi4/lib
    Memory level set to 256.000 MB

  ==> Input File <==

--------------------------------------------------------------------------

# PYTHONPATH must include directory above plugin directory.
#     Define either externally or here, then import plugin.
sys.path.insert(0, '/Users/kevinhannon/Programs/Quantum_Programs/Quantum-Programs/GS/')
import scf

molecule {
0 1
H
H 1 0.50000
symmetry c1
units angstrom
}


set {
  basis cc-pvdz
  reference rhf
  scf_type  pk
}

set scf {
  DO_FTHF true
  MAX_ITER 130
  MAX_TEMP 20000
  TEMP_INCREMENT 0
  bisect  true
  bisect_iter  40
}
energy('rhf')
energy('scf')


--------------------------------------------------------------------------

*** tstart() called on Kevins-MacBook-Pro.local
*** at Sun Apr 12 15:45:53 2015

/Users/kevinhannon/Programs/Quantum_Programs/Quantum-Programs/GS/scf/scf.so loaded.

*** tstart() called on Kevins-MacBook-Pro.local
*** at Sun Apr 12 15:45:53 2015


         ---------------------------------------------------------
                                   SCF
            by Justin Turney, Rob Parrish, and Andy Simmonett
                              RHF Reference
                        1 Threads,    256 MiB Core
         ---------------------------------------------------------

  ==> Geometry <==

    Molecular point group: c1
    Full point group: D_inf_h

    Geometry (in Angstrom), charge = 0, multiplicity = 1:

       Center              X                  Y                   Z       
    ------------   -----------------  -----------------  -----------------
           H          0.000000000000     0.000000000000    -0.250000000000
           H          0.000000000000     0.000000000000     0.250000000000

  Running in c1 symmetry.

  Rotational constants: A = ************  B =    133.81393  C =    133.81393 [cm^-1]
  Rotational constants: A = ************  B = 4011640.82188  C = 4011640.82188 [MHz]
  Nuclear repulsion =    1.058354417180000

  Charge       = 0
  Multiplicity = 1
  Electrons    = 2
  Nalpha       = 1
  Nbeta        = 1

  ==> Algorithm <==

  SCF Algorithm Type is PK.
  DIIS enabled.
  MOM disabled.
  Fractional occupation disabled.
  Guess Type is CORE.
  Energy threshold   = 1.00e-06
  Density threshold  = 1.00e-06
  Integral threshold = 0.00e+00

  ==> Primary Basis <==

  Basis Set: CC-PVDZ
    Number of shells: 6
    Number of basis function: 10
    Number of Cartesian functions: 10
    Spherical Harmonics?: true
    Max angular momentum: 1

  ==> Pre-Iterations <==

   -------------------------------------------------------
    Irrep   Nso     Nmo     Nalpha   Nbeta   Ndocc  Nsocc
   -------------------------------------------------------
     A         10      10       0       0       0       0
   -------------------------------------------------------
    Total      10      10       1       1       1       0
   -------------------------------------------------------

  Starting with a DF guess...

 OEINTS: Overlap, kinetic, potential, dipole, and quadrupole integrals
         stored in file 35.

  ==> Integral Setup <==

  ==> DFJK: Density-Fitted J/K Matrices <==

    J tasked:                  Yes
    K tasked:                  Yes
    wK tasked:                  No
    OpenMP threads:              1
    Integrals threads:           1
    Memory (MB):               183
    Algorithm:                Core
    Integral Cache:           NONE
    Schwarz Cutoff:          1E-12
    Fitting Condition:       1E-12

   => Auxiliary Basis Set <=

  Basis Set: 
    Number of shells: 18
    Number of basis function: 46
    Number of Cartesian functions: 50
    Spherical Harmonics?: true
    Max angular momentum: 2

  Minimum eigenvalue in the overlap matrix is 1.2993780459E-02.
  Using Symmetric Orthogonalization.
  SCF Guess: Core (One-Electron) Hamiltonian.

  ==> Iterations <==

                           Total Energy        Delta E     RMS |[F,P]|

   @DF-RHF iter   1:    -0.99831091272004   -9.98311e-01   2.26827e-02 
   @DF-RHF iter   2:    -1.04670120620207   -4.83903e-02   4.44913e-03 DIIS
   @DF-RHF iter   3:    -1.04879951700602   -2.09831e-03   2.54054e-04 DIIS
   @DF-RHF iter   4:    -1.04880302208504   -3.50508e-06   2.14109e-05 DIIS
   @DF-RHF iter   5:    -1.04880307195209   -4.98671e-08   6.15949e-08 DIIS

  DF guess converged.

  ==> Integral Setup <==

 MINTS: Wrapper to libmints.
   by Justin Turney

   Calculation information:
      Number of atoms:                   2
      Number of AO shells:               6
      Number of SO shells:               6
      Number of primitives:             10
      Number of atomic orbitals:        10
      Number of basis functions:        10

      Number of irreps:                  1
      Integral cutoff                 0.00e+00
      Number of functions per irrep: [  10 ]

 OEINTS: Overlap, kinetic, potential, dipole, and quadrupole integrals
         stored in file 35.

      Computing two-electron integrals...done
      Computed 512 non-zero two-electron integrals.
        Stored in file 33.

	Batch   1 pq = [       0,      55] index = [             0,1540]
  ==> DiskJK: Disk-Based J/K Matrices <==

    J tasked:                  Yes
    K tasked:                  Yes
    wK tasked:                  No
    Memory (MB):               183
    Schwarz Cutoff:          1E-12

   @RHF iter   6:    -1.04880055810161    2.51385e-06   5.55068e-07 DIIS
   @RHF iter   7:    -1.04880055813123   -2.96256e-11   9.88266e-08 DIIS

  ==> Post-Iterations <==

    Orbital Energies (a.u.)
    -----------------------

    Doubly Occupied:                                                      

       1A     -0.677456  

    Virtual:                                                              

       2A      0.238185     3A      0.421537     4A      1.168756  
       5A      1.332750     6A      1.332750     7A      2.146500  
       8A      2.202789     9A      2.202789    10A      5.939503  

    Final Occupation by Irrep:
              A 
    DOCC [     1 ]

  Energy converged.

  @RHF Final Energy:    -1.04880055813123

   => Energetics <=

    Nuclear Repulsion Energy =              1.0583544171799999
    One-Electron Energy =                  -2.8593992182220243
    Two-Electron Energy =                   0.7522442429107923
    DFT Exchange-Correlation Energy =       0.0000000000000000
    Empirical Dispersion Energy =           0.0000000000000000
    PCM Polarization Energy =               0.0000000000000000
    EFP Energy =                            0.0000000000000000
    Total Energy =                         -1.0488005581312321

    Alert: EFP and PCM quantities not currently incorporated into SCF psivars.

Properties will be evaluated at   0.000000,   0.000000,   0.000000 Bohr
  ==> Properties <==


Properties computed using the SCF density matrix

  Nuclear Dipole Moment: (a.u.)
     X:     0.0000      Y:     0.0000      Z:     0.0000

  Electronic Dipole Moment: (a.u.)
     X:     0.0000      Y:    -0.0000      Z:    -0.0000

  Dipole Moment: (a.u.)
     X:     0.0000      Y:    -0.0000      Z:    -0.0000     Total:     0.0000

  Dipole Moment: (Debye)
     X:     0.0000      Y:    -0.0000      Z:    -0.0000     Total:     0.0000


  Saving occupied orbitals to File 180.

*** tstop() called on Kevins-MacBook-Pro.local at Sun Apr 12 15:45:54 2015
Module time:
	user time   =       0.20 seconds =       0.00 minutes
	system time =       0.01 seconds =       0.00 minutes
	total time  =          1 seconds =       0.02 minutes
Total time:
	user time   =       0.21 seconds =       0.00 minutes
	system time =       0.02 seconds =       0.00 minutes
	total time  =          1 seconds =       0.02 minutes

*** tstart() called on Kevins-MacBook-Pro.local
*** at Sun Apr 12 15:45:54 2015


         ---------------------------------------------------------
                                   SCF
            by Justin Turney, Rob Parrish, and Andy Simmonett
                              RHF Reference
                        1 Threads,    256 MiB Core
         ---------------------------------------------------------

  ==> Geometry <==

    Molecular point group: c1
    Full point group: D_inf_h

    Geometry (in Angstrom), charge = 0, multiplicity = 1:

       Center              X                  Y                   Z       
    ------------   -----------------  -----------------  -----------------
           H          0.000000000000     0.000000000000    -0.250000000000
           H          0.000000000000     0.000000000000     0.250000000000

  Running in c1 symmetry.

  Rotational constants: A = ************  B =    133.81393  C =    133.81393 [cm^-1]
  Rotational constants: A = ************  B = 4011640.82188  C = 4011640.82188 [MHz]
  Nuclear repulsion =    1.058354417180000

  Charge       = 0
  Multiplicity = 1
  Electrons    = 2
  Nalpha       = 1
  Nbeta        = 1

  ==> Algorithm <==

  SCF Algorithm Type is PK.
  DIIS enabled.
  MOM disabled.
  Fractional occupation disabled.
  Guess Type is CORE.
  Energy threshold   = 1.00e-08
  Density threshold  = 1.00e-08
  Integral threshold = 0.00e+00

  ==> Primary Basis <==

  Basis Set: CC-PVDZ
    Number of shells: 6
    Number of basis function: 10
    Number of Cartesian functions: 10
    Spherical Harmonics?: true
    Max angular momentum: 1

  ==> Pre-Iterations <==

   -------------------------------------------------------
    Irrep   Nso     Nmo     Nalpha   Nbeta   Ndocc  Nsocc
   -------------------------------------------------------
     A         10      10       0       0       0       0
   -------------------------------------------------------
    Total      10      10       1       1       1       0
   -------------------------------------------------------

  Starting with a DF guess...

 OEINTS: Overlap, kinetic, potential, dipole, and quadrupole integrals
         stored in file 35.

  ==> Integral Setup <==

  ==> DFJK: Density-Fitted J/K Matrices <==

    J tasked:                  Yes
    K tasked:                  Yes
    wK tasked:                  No
    OpenMP threads:              1
    Integrals threads:           1
    Memory (MB):               183
    Algorithm:                Core
    Integral Cache:           NONE
    Schwarz Cutoff:          1E-12
    Fitting Condition:       1E-12

   => Auxiliary Basis Set <=

  Basis Set: 
    Number of shells: 18
    Number of basis function: 46
    Number of Cartesian functions: 50
    Spherical Harmonics?: true
    Max angular momentum: 2

  Minimum eigenvalue in the overlap matrix is 1.2993780459E-02.
  Using Symmetric Orthogonalization.
  SCF Guess: Core (One-Electron) Hamiltonian.

  ==> Iterations <==

                           Total Energy        Delta E     RMS |[F,P]|

   @DF-RHF iter   1:    -0.99831091272004   -9.98311e-01   2.26827e-02 
   @DF-RHF iter   2:    -1.04670120620207   -4.83903e-02   4.44913e-03 DIIS
   @DF-RHF iter   3:    -1.04879951700602   -2.09831e-03   2.54054e-04 DIIS
   @DF-RHF iter   4:    -1.04880302208504   -3.50508e-06   2.14109e-05 DIIS
   @DF-RHF iter   5:    -1.04880307195209   -4.98671e-08   6.15949e-08 DIIS
   @DF-RHF iter   6:    -1.04880307195251   -4.18332e-13   7.67496e-11 DIIS

  DF guess converged.

  ==> Integral Setup <==

 MINTS: Wrapper to libmints.
   by Justin Turney

   Calculation information:
      Number of atoms:                   2
      Number of AO shells:               6
      Number of SO shells:               6
      Number of primitives:             10
      Number of atomic orbitals:        10
      Number of basis functions:        10

      Number of irreps:                  1
      Integral cutoff                 0.00e+00
      Number of functions per irrep: [  10 ]

 OEINTS: Overlap, kinetic, potential, dipole, and quadrupole integrals
         stored in file 35.

      Computing two-electron integrals...done
      Computed 512 non-zero two-electron integrals.
        Stored in file 33.

	Batch   1 pq = [       0,      55] index = [             0,1540]
  ==> DiskJK: Disk-Based J/K Matrices <==

    J tasked:                  Yes
    K tasked:                  Yes
    wK tasked:                  No
    Memory (MB):               183
    Schwarz Cutoff:          1E-12

   @RHF iter   7:    -1.04880055810162    2.51385e-06   5.54994e-07 DIIS
   @RHF iter   8:    -1.04880055813123   -2.96172e-11   9.88121e-08 DIIS
   @RHF iter   9:    -1.04880055813231   -1.07869e-12   5.37718e-09 DIIS

  ==> Post-Iterations <==

    Orbital Energies (a.u.)
    -----------------------

    Doubly Occupied:                                                      

       1A     -0.677456  

    Virtual:                                                              

       2A      0.238185     3A      0.421537     4A      1.168756  
       5A      1.332750     6A      1.332750     7A      2.146500  
       8A      2.202789     9A      2.202789    10A      5.939503  

    Final Occupation by Irrep:
              A 
    DOCC [     1 ]

  Energy converged.

  @RHF Final Energy:    -1.04880055813231

   => Energetics <=

    Nuclear Repulsion Energy =              1.0583544171799999
    One-Electron Energy =                  -2.8593986995659249
    Two-Electron Energy =                   0.7522437242536124
    DFT Exchange-Correlation Energy =       0.0000000000000000
    Empirical Dispersion Energy =           0.0000000000000000
    PCM Polarization Energy =               0.0000000000000000
    EFP Energy =                            0.0000000000000000
    Total Energy =                         -1.0488005581323125

    Alert: EFP and PCM quantities not currently incorporated into SCF psivars.

Properties will be evaluated at   0.000000,   0.000000,   0.000000 Bohr
  ==> Properties <==


Properties computed using the SCF density matrix

  Nuclear Dipole Moment: (a.u.)
     X:     0.0000      Y:     0.0000      Z:     0.0000

  Electronic Dipole Moment: (a.u.)
     X:    -0.0000      Y:    -0.0000      Z:    -0.0000

  Dipole Moment: (a.u.)
     X:    -0.0000      Y:    -0.0000      Z:    -0.0000     Total:     0.0000

  Dipole Moment: (Debye)
     X:    -0.0000      Y:    -0.0000      Z:    -0.0000     Total:     0.0000


  Saving occupied orbitals to File 180.

*** tstop() called on Kevins-MacBook-Pro.local at Sun Apr 12 15:45:54 2015
Module time:
	user time   =       0.20 seconds =       0.00 minutes
	system time =       0.01 seconds =       0.00 minutes
	total time  =          0 seconds =       0.00 minutes
Total time:
	user time   =       0.42 seconds =       0.01 minutes
	system time =       0.03 seconds =       0.00 minutes
	total time  =          1 seconds =       0.02 minutes
Reading options from the SCF block
Calling plugin scf.so.
    Molecular point group: c1
    Full point group: D_inf_h

    Geometry (in Angstrom), charge = 0, multiplicity = 1:

       Center              X                  Y                   Z       
    ------------   -----------------  -----------------  -----------------
           H          0.000000000000     0.000000000000    -0.250000000000
           H          0.000000000000     0.000000000000     0.250000000000


    Nuclear repulsion energy:       1.05835442

  ## Overlap (Symmetry 0) ##
  Irrep: 1 Size: 10 x 10

                 1                   2                   3                   4                   5

    1     1.00000000000000     0.68486025149275     0.00000000000000     0.00000000000000     0.00000000000000
    2     0.68486025149275     1.00000000000000     0.00000000000000     0.00000000000000     0.00000000000000
    3     0.00000000000000     0.00000000000000     1.00000000000000     0.00000000000000     0.00000000000000
    4     0.00000000000000     0.00000000000000     0.00000000000000     1.00000000000000     0.00000000000000
    5     0.00000000000000     0.00000000000000     0.00000000000000     0.00000000000000     1.00000000000000
    6     0.76476471866075     0.62752824934519     0.52404343432147     0.00000000000000     0.00000000000000
    7     0.62752824934519     0.94699758204888     0.12394167372702     0.00000000000000     0.00000000000000
    8    -0.52404343432147    -0.12394167372702     0.25369906492993     0.00000000000000     0.00000000000000
    9     0.00000000000000     0.00000000000000     0.00000000000000     0.72287387491506     0.00000000000000
   10     0.00000000000000     0.00000000000000     0.00000000000000     0.00000000000000     0.72287387491506

                 6                   7                   8                   9                  10

    1     0.76476471866075     0.62752824934519    -0.52404343432147     0.00000000000000     0.00000000000000
    2     0.62752824934519     0.94699758204888    -0.12394167372702     0.00000000000000     0.00000000000000
    3     0.52404343432147     0.12394167372702     0.25369906492993     0.00000000000000     0.00000000000000
    4     0.00000000000000     0.00000000000000     0.00000000000000     0.72287387491506     0.00000000000000
    5     0.00000000000000     0.00000000000000     0.00000000000000     0.00000000000000     0.72287387491506
    6     1.00000000000000     0.68486025149275    -0.00000000000000     0.00000000000000     0.00000000000000
    7     0.68486025149275     1.00000000000000    -0.00000000000000     0.00000000000000     0.00000000000000
    8    -0.00000000000000    -0.00000000000000     1.00000000000000     0.00000000000000     0.00000000000000
    9     0.00000000000000     0.00000000000000     0.00000000000000     1.00000000000000     0.00000000000000
   10     0.00000000000000     0.00000000000000     0.00000000000000     0.00000000000000     1.00000000000000



  ## Kinetic (Symmetry 0) ##
  Irrep: 1 Size: 10 x 10

                 1                   2                   3                   4                   5

    1     0.96945722711242     0.20123413106538     0.00000000000000     0.00000000000000     0.00000000000000
    2     0.20123413106538     0.18300000000000     0.00000000000000     0.00000000000000     0.00000000000000
    3     0.00000000000000     0.00000000000000     1.81750000000000     0.00000000000000     0.00000000000000
    4     0.00000000000000     0.00000000000000     0.00000000000000     1.81750000000000     0.00000000000000
    5     0.00000000000000     0.00000000000000     0.00000000000000     0.00000000000000     1.81750000000000
    6     0.51079431865824     0.17354119558686     0.79330310537282     0.00000000000000     0.00000000000000
    7     0.17354119558686     0.16700873761956     0.06232495307594     0.00000000000000     0.00000000000000
    8    -0.79330310537282    -0.06232495307594     0.06015365220332     0.00000000000000     0.00000000000000
    9     0.00000000000000     0.00000000000000     0.00000000000000     1.14327822422853     0.00000000000000
   10     0.00000000000000     0.00000000000000     0.00000000000000     0.00000000000000     1.14327822422853

                 6                   7                   8                   9                  10

    1     0.51079431865824     0.17354119558686    -0.79330310537282     0.00000000000000     0.00000000000000
    2     0.17354119558686     0.16700873761956    -0.06232495307594     0.00000000000000     0.00000000000000
    3     0.79330310537282     0.06232495307594     0.06015365220332     0.00000000000000     0.00000000000000
    4     0.00000000000000     0.00000000000000     0.00000000000000     1.14327822422853     0.00000000000000
    5     0.00000000000000     0.00000000000000     0.00000000000000     0.00000000000000     1.14327822422853
    6     0.96945722711242     0.20123413106538    -0.00000000000000     0.00000000000000     0.00000000000000
    7     0.20123413106538     0.18300000000000    -0.00000000000000     0.00000000000000     0.00000000000000
    8    -0.00000000000000    -0.00000000000000     1.81750000000000     0.00000000000000     0.00000000000000
    9     0.00000000000000     0.00000000000000     0.00000000000000     1.81750000000000     0.00000000000000
   10     0.00000000000000     0.00000000000000     0.00000000000000     0.00000000000000     1.81750000000000



  ## Potential (Symmetry 0) ##
  Irrep: 1 Size: 10 x 10

                 1                   2                   3                   4                   5

    1    -2.27967700036042    -1.16836050225157    -0.34059396597628     0.00000000000000     0.00000000000000
    2    -1.16836050225157    -1.07679753925125    -0.21245630862846     0.00000000000000     0.00000000000000
    3    -0.34059396597628    -0.21245630862846    -1.92230897019307     0.00000000000000     0.00000000000000
    4     0.00000000000000     0.00000000000000     0.00000000000000    -1.63117553722241     0.00000000000000
    5     0.00000000000000     0.00000000000000     0.00000000000000     0.00000000000000    -1.63117553722241
    6    -1.75996895749565    -1.09256783229529    -1.35634054227230     0.00000000000000     0.00000000000000
    7    -1.09256783229529    -1.03681715474837    -0.37949929703511     0.00000000000000     0.00000000000000
    8     1.35634054227230     0.37949929703511    -0.28378645786530     0.00000000000000     0.00000000000000
    9     0.00000000000000     0.00000000000000     0.00000000000000    -1.23187504667962     0.00000000000000
   10     0.00000000000000     0.00000000000000     0.00000000000000     0.00000000000000    -1.23187504667962

                 6                   7                   8                   9                  10

    1    -1.75996895749565    -1.09256783229529     1.35634054227230     0.00000000000000     0.00000000000000
    2    -1.09256783229529    -1.03681715474837     0.37949929703511     0.00000000000000     0.00000000000000
    3    -1.35634054227230    -0.37949929703511    -0.28378645786530     0.00000000000000     0.00000000000000
    4     0.00000000000000     0.00000000000000     0.00000000000000    -1.23187504667962     0.00000000000000
    5     0.00000000000000     0.00000000000000     0.00000000000000     0.00000000000000    -1.23187504667962
    6    -2.27967700036042    -1.16836050225157     0.34059396597628     0.00000000000000     0.00000000000000
    7    -1.16836050225157    -1.07679753925125     0.21245630862846     0.00000000000000     0.00000000000000
    8     0.34059396597628     0.21245630862846    -1.92230897019307     0.00000000000000     0.00000000000000
    9     0.00000000000000     0.00000000000000     0.00000000000000    -1.63117553722241     0.00000000000000
   10     0.00000000000000     0.00000000000000     0.00000000000000     0.00000000000000    -1.63117553722241



  ## One Electron Ints (Symmetry 0) ##
  Irrep: 1 Size: 10 x 10

                 1                   2                   3                   4                   5

    1    -1.31021977324800    -0.96712637118619    -0.34059396597628     0.00000000000000     0.00000000000000
    2    -0.96712637118619    -0.89379753925125    -0.21245630862846     0.00000000000000     0.00000000000000
    3    -0.34059396597628    -0.21245630862846    -0.10480897019307     0.00000000000000     0.00000000000000
    4     0.00000000000000     0.00000000000000     0.00000000000000     0.18632446277759     0.00000000000000
    5     0.00000000000000     0.00000000000000     0.00000000000000     0.00000000000000     0.18632446277759
    6    -1.24917463883741    -0.91902663670843    -0.56303743689948     0.00000000000000     0.00000000000000
    7    -0.91902663670843    -0.86980841712882    -0.31717434395917     0.00000000000000     0.00000000000000
    8     0.56303743689948     0.31717434395917    -0.22363280566198     0.00000000000000     0.00000000000000
    9     0.00000000000000     0.00000000000000     0.00000000000000    -0.08859682245109     0.00000000000000
   10     0.00000000000000     0.00000000000000     0.00000000000000     0.00000000000000    -0.08859682245109

                 6                   7                   8                   9                  10

    1    -1.24917463883741    -0.91902663670843     0.56303743689948     0.00000000000000     0.00000000000000
    2    -0.91902663670843    -0.86980841712882     0.31717434395917     0.00000000000000     0.00000000000000
    3    -0.56303743689948    -0.31717434395917    -0.22363280566198     0.00000000000000     0.00000000000000
    4     0.00000000000000     0.00000000000000     0.00000000000000    -0.08859682245109     0.00000000000000
    5     0.00000000000000     0.00000000000000     0.00000000000000     0.00000000000000    -0.08859682245109
    6    -1.31021977324800    -0.96712637118619     0.34059396597628     0.00000000000000     0.00000000000000
    7    -0.96712637118619    -0.89379753925125     0.21245630862846     0.00000000000000     0.00000000000000
    8     0.34059396597628     0.21245630862846    -0.10480897019307     0.00000000000000     0.00000000000000
    9     0.00000000000000     0.00000000000000     0.00000000000000     0.18632446277759     0.00000000000000
   10     0.00000000000000     0.00000000000000     0.00000000000000     0.00000000000000     0.18632446277759




	There are 0 unique integrals

  ## Fock (Symmetry 0) ##
  Irrep: 1 Size: 10 x 10

                 1                   2                   3                   4                   5

    1     1.14745791605416    -0.37626567209344     0.62431898000370     0.00000000000000     0.00000000000000
    2    -0.37626567209343    -0.36506111129570     0.10531077861111     0.00000000000000     0.00000000000000
    3     0.62431898000370     0.10531077861111     0.69724686970292     0.00000000000000     0.00000000000000
    4     0.00000000000000     0.00000000000000     0.00000000000000     0.52438376519497    -0.00000000000000
    5     0.00000000000000     0.00000000000000     0.00000000000000    -0.00000000000000     0.52438376519497
    6    -2.22861693976938    -0.04712873019101    -1.27487732594611     0.00000000000000     0.00000000000000
    7    -0.04712873019101    -0.16615375746235    -0.06387773983234     0.00000000000000     0.00000000000000
    8     1.27487732594610     0.06387773983234    -0.00083053705306     0.00000000000000     0.00000000000000
    9     0.00000000000000     0.00000000000000     0.00000000000000    -0.46766014674012    -0.00000000000000
   10     0.00000000000000     0.00000000000000     0.00000000000000     0.00000000000000    -0.46766014674013

                 6                   7                   8                   9                  10

    1    -2.22861693976938    -0.04712873019101     1.27487732594610     0.00000000000000     0.00000000000000
    2    -0.04712873019101    -0.16615375746235     0.06387773983234     0.00000000000000     0.00000000000000
    3    -1.27487732594611    -0.06387773983234    -0.00083053705306     0.00000000000000     0.00000000000000
    4     0.00000000000000     0.00000000000000     0.00000000000000    -0.46766014674012     0.00000000000000
    5     0.00000000000000     0.00000000000000     0.00000000000000    -0.00000000000000    -0.46766014674013
    6     1.14745791605416    -0.37626567209344    -0.62431898000369     0.00000000000000     0.00000000000000
    7    -0.37626567209344    -0.36506111129570    -0.10531077861111     0.00000000000000     0.00000000000000
    8    -0.62431898000369    -0.10531077861111     0.69724686970291     0.00000000000000     0.00000000000000
    9     0.00000000000000     0.00000000000000     0.00000000000000     0.52438376519497    -0.00000000000000
   10     0.00000000000000     0.00000000000000     0.00000000000000    -0.00000000000000     0.52438376519497



  ## C (Symmetry 0) ##
  Irrep: 1 Size: 10 x 10

                 1                   2                   3                   4                   5

    1     2.54371729445491     2.25949377519990     0.40296676986865     3.17795877496390    -0.97038406923616
    2    -0.72137926969601    -1.64237782659892    -0.09046525362358    -0.09615982214274     0.03763494859582
    3     0.31325001988329     1.34211160292582     0.01691942307659     1.24960817325964    -0.45416900624463
    4    -0.25434986303860     0.70644602243220     0.56714767856826     0.02621141213015     0.40139673859015
    5     0.35729501963867    -0.01892977446193     0.18381597443336     0.37376318748931     0.86354930630580
    6    -1.52339734812047    -2.00517133838478    -0.65896785920463    -3.65342711354555     1.27038524191419
    7    -0.08417562432505     1.24749252844134     1.06638132150281     0.28745327122457    -0.16099869333682
    8     0.93310547656697     0.64288584181035     0.12956148614412     1.95373648710874    -0.41350761946985
    9     0.10873154681567    -0.30199728768546    -0.24244889942906    -0.06131494750695    -0.93896581511555
   10    -0.83580103448301     0.04428140390486    -0.42999082870306    -0.15977932534722    -0.36915707641633

                 6                   7                   8                   9                  10

    1     2.23045537395980     1.70380650654832    -0.95464836164004     0.97342633233661    -0.82642697429077
    2     0.85053779739868     1.14600545401206     2.85874844724251    -0.07447323800326     0.03621880357040
    3     0.38735282054279     1.47356065627016     0.11358207853567     0.77785910074880    -0.42336355076179
    4     0.25434986303860    -0.70644602243220     0.56714767856826    -0.02621141213015    -0.40139673859015
    5    -0.35729501963867     0.01892977446194     0.18381597443336     0.37376318748931     0.86354930630580
    6    -1.45433537901867    -1.88266408657063     0.78059201634679    -1.96156114721806     1.15990552982649
    7    -1.14845801817634    -0.64041065359390    -2.94067553576976     0.48653045406564    -0.17399853509808
    8     0.92503304657505     0.62856636574220    -0.14377774013492    -0.39775898711349    -0.25995376346816
    9    -0.10873154681567     0.30199728768546    -0.24244889942906     0.06131494750695     0.93896581511555
   10     0.83580103448301    -0.04428140390486    -0.42999082870306    -0.15977932534722    -0.36915707641633




 In Bisection function HOMO = -1.459  LUMO =  4.371

 1.45560 = (-1.45939 + 4.37058)/2.0
 sum -  nocc_ = 7.99842105
 On Iteration in Bisection 0
 a: 7.99842  b:-0.50000

 -0.00190 = (-1.45939 + 1.45560)/2.0
 sum -  nocc_ = 2.85319305
 On Iteration in Bisection 1
 a: 2.85319  b:-0.50000

 -0.73064 = (-1.45939 + -0.00190)/2.0
 sum -  nocc_ = 0.06091436
 On Iteration in Bisection 2
 a: 0.06091  b:-0.50000

 -1.09502 = (-1.45939 + -0.73064)/2.0
 sum -  nocc_ = -0.00295810
 On Iteration in Bisection 3
 a: -0.00296  b:-0.50000

 -0.91283 = (-1.09502 + -0.73064)/2.0
 sum -  nocc_ = 0.00343346
 On Iteration in Bisection 4
 a: 0.00343  b:-0.00296

 -1.00392 = (-1.09502 + -0.91283)/2.0
 sum -  nocc_ = 0.00010703
 On Iteration in Bisection 5
 a: 0.00011  b:-0.00296

 -1.04947 = (-1.09502 + -1.00392)/2.0
 sum -  nocc_ = -0.00112419
 On Iteration in Bisection 6
 a: -0.00112  b:-0.00296

 -1.02670 = (-1.04947 + -1.00392)/2.0
 sum -  nocc_ = -0.00047755
 On Iteration in Bisection 7
 a: -0.00048  b:-0.00112

 -1.01531 = (-1.02670 + -1.00392)/2.0
 sum -  nocc_ = -0.00018232
 On Iteration in Bisection 8
 a: -0.00018  b:-0.00048

 -1.00962 = (-1.01531 + -1.00392)/2.0
 sum -  nocc_ = -0.00003749
 On Iteration in Bisection 9
 a: -0.00004  b:-0.00018

 -1.00677 = (-1.00962 + -1.00392)/2.0
 sum -  nocc_ = 0.00003474
 On Iteration in Bisection 10
 a: 0.00003  b:-0.00004

 -1.00819 = (-1.00962 + -1.00677)/2.0
 sum -  nocc_ = -0.00000138
 On Iteration in Bisection 11
 a: -0.00000  b:-0.00004

 -1.00748 = (-1.00819 + -1.00677)/2.0
 sum -  nocc_ = 0.00001668
 On Iteration in Bisection 12
 a: 0.00002  b:-0.00000

 -1.00784 = (-1.00819 + -1.00748)/2.0
 sum -  nocc_ = 0.00000765
 On Iteration in Bisection 13
 a: 0.00001  b:-0.00000

 -1.00801 = (-1.00819 + -1.00784)/2.0
 sum -  nocc_ = 0.00000314
 On Iteration in Bisection 14
 a: 0.00000  b:-0.00000

 -1.00810 = (-1.00819 + -1.00801)/2.0
 sum -  nocc_ = 0.00000088
 On Iteration in Bisection 15
 a: 0.00000  b:-0.00000

 -1.00815 = (-1.00819 + -1.00810)/2.0
 sum -  nocc_ = -0.00000025
 On Iteration in Bisection 16
 a: -0.00000  b:-0.00000

 -1.00813 = (-1.00815 + -1.00810)/2.0
 sum -  nocc_ = 0.00000031
 On Iteration in Bisection 17
 a: 0.00000  b:-0.00000

 -1.00814 = (-1.00815 + -1.00813)/2.0
 sum -  nocc_ = 0.00000003
 On Iteration in Bisection 18
 a: 0.00000  b:-0.00000

 -1.00814 = (-1.00815 + -1.00814)/2.0
 sum -  nocc_ = -0.00000011
 On Iteration in Bisection 19
 a: -0.00000  b:-0.00000

 -1.00814 = (-1.00814 + -1.00814)/2.0
 sum -  nocc_ = -0.00000004
 On Iteration in Bisection 20
 a: -0.00000  b:-0.00000

 -1.00814 = (-1.00814 + -1.00814)/2.0
 sum -  nocc_ = -0.00000000
 ef = -1.00814 sum = 1.00000 

 Iter: 0  T:    20000.000  val:-1.008138  sumni 0.00000
 ne = 1.0000

Nuc Replusion =       1.058354417180
 1st iteration =       1.211904226983
 In Bisection function HOMO = -0.244  LUMO =  5.668

 2.71185 = (-0.24445 + 5.66815)/2.0
 sum -  nocc_ = 7.99988232
 On Iteration in Bisection 0
 a: 7.99988  b:-0.49906

 1.23370 = (-0.24445 + 2.71185)/2.0
 sum -  nocc_ = 4.18091522
 On Iteration in Bisection 1
 a: 4.18092  b:-0.49906

 0.49463 = (-0.24445 + 1.23370)/2.0
 sum -  nocc_ = 1.93425260
 On Iteration in Bisection 2
 a: 1.93425  b:-0.49906

 0.12509 = (-0.24445 + 0.49463)/2.0
 sum -  nocc_ = 0.25920005
 On Iteration in Bisection 3
 a: 0.25920  b:-0.49906

 -0.05968 = (-0.24445 + 0.12509)/2.0
 sum -  nocc_ = -0.03404269
 On Iteration in Bisection 4
 a: -0.03404  b:-0.49906

 0.03271 = (-0.05968 + 0.12509)/2.0
 sum -  nocc_ = 0.05880986
 On Iteration in Bisection 5
 a: 0.05881  b:-0.03404

 -0.01349 = (-0.05968 + 0.03271)/2.0
 sum -  nocc_ = 0.00988987
 On Iteration in Bisection 6
 a: 0.00989  b:-0.03404

 -0.03658 = (-0.05968 + -0.01349)/2.0
 sum -  nocc_ = -0.01147927
 On Iteration in Bisection 7
 a: -0.01148  b:-0.03404

 -0.02503 = (-0.03658 + -0.01349)/2.0
 sum -  nocc_ = -0.00079506
 On Iteration in Bisection 8
 a: -0.00080  b:-0.01148

 -0.01926 = (-0.02503 + -0.01349)/2.0
 sum -  nocc_ = 0.00452854
 On Iteration in Bisection 9
 a: 0.00453  b:-0.00080

 -0.02215 = (-0.02503 + -0.01926)/2.0
 sum -  nocc_ = 0.00186438
 On Iteration in Bisection 10
 a: 0.00186  b:-0.00080

 -0.02359 = (-0.02503 + -0.02215)/2.0
 sum -  nocc_ = 0.00053437
 On Iteration in Bisection 11
 a: 0.00053  b:-0.00080

 -0.02431 = (-0.02503 + -0.02359)/2.0
 sum -  nocc_ = -0.00013038
 On Iteration in Bisection 12
 a: -0.00013  b:-0.00080

 -0.02395 = (-0.02431 + -0.02359)/2.0
 sum -  nocc_ = 0.00020198
 On Iteration in Bisection 13
 a: 0.00020  b:-0.00013

 -0.02413 = (-0.02431 + -0.02395)/2.0
 sum -  nocc_ = 0.00003579
 On Iteration in Bisection 14
 a: 0.00004  b:-0.00013

 -0.02422 = (-0.02431 + -0.02413)/2.0
 sum -  nocc_ = -0.00004729
 On Iteration in Bisection 15
 a: -0.00005  b:-0.00013

 -0.02418 = (-0.02422 + -0.02413)/2.0
 sum -  nocc_ = -0.00000575
 On Iteration in Bisection 16
 a: -0.00001  b:-0.00005

 -0.02415 = (-0.02418 + -0.02413)/2.0
 sum -  nocc_ = 0.00001502
 On Iteration in Bisection 17
 a: 0.00002  b:-0.00001

 -0.02417 = (-0.02418 + -0.02415)/2.0
 sum -  nocc_ = 0.00000464
 On Iteration in Bisection 18
 a: 0.00000  b:-0.00001

 -0.02417 = (-0.02418 + -0.02417)/2.0
 sum -  nocc_ = -0.00000056
 On Iteration in Bisection 19
 a: -0.00000  b:-0.00001

 -0.02417 = (-0.02417 + -0.02417)/2.0
 sum -  nocc_ = 0.00000204
 On Iteration in Bisection 20
 a: 0.00000  b:-0.00000

 -0.02417 = (-0.02417 + -0.02417)/2.0
 sum -  nocc_ = 0.00000074
 On Iteration in Bisection 21
 a: 0.00000  b:-0.00000

 -0.02417 = (-0.02417 + -0.02417)/2.0
 sum -  nocc_ = 0.00000009
 On Iteration in Bisection 22
 a: 0.00000  b:-0.00000

 -0.02417 = (-0.02417 + -0.02417)/2.0
 sum -  nocc_ = -0.00000023
 On Iteration in Bisection 23
 a: -0.00000  b:-0.00000

 -0.02417 = (-0.02417 + -0.02417)/2.0
 sum -  nocc_ = -0.00000007
 On Iteration in Bisection 24
 a: -0.00000  b:-0.00000

 -0.02417 = (-0.02417 + -0.02417)/2.0
 sum -  nocc_ = 0.00000001
 On Iteration in Bisection 25
 a: 0.00000  b:-0.00000

 -0.02417 = (-0.02417 + -0.02417)/2.0
 sum -  nocc_ = -0.00000003
 On Iteration in Bisection 26
 a: -0.00000  b:-0.00000

 -0.02417 = (-0.02417 + -0.02417)/2.0
 sum -  nocc_ = -0.00000001
 ef = -0.02417 sum = 1.00000 

 Iter: 0  T:    20000.000  val:-0.024171  sumni 0.00000
 ne = 1.0000

 iter:1  failiter:1  energy:     -1.610698837070  total:     -0.552344419890  error:     -0.561898278938
 In Bisection function HOMO = -0.684  LUMO =  5.894

 2.60476 = (-0.68433 + 5.89384)/2.0
 sum -  nocc_ = 7.99711986
 On Iteration in Bisection 0
 a: 7.99712  b:-0.50000

 0.96021 = (-0.68433 + 2.60476)/2.0
 sum -  nocc_ = 2.06358957
 On Iteration in Bisection 1
 a: 2.06359  b:-0.50000

 0.13794 = (-0.68433 + 0.96021)/2.0
 sum -  nocc_ = 0.21866114
 On Iteration in Bisection 2
 a: 0.21866  b:-0.50000

 -0.27319 = (-0.68433 + 0.13794)/2.0
 sum -  nocc_ = -0.00110178
 On Iteration in Bisection 3
 a: -0.00110  b:-0.50000

 -0.06762 = (-0.27319 + 0.13794)/2.0
 sum -  nocc_ = 0.01042366
 On Iteration in Bisection 4
 a: 0.01042  b:-0.00110

 -0.17041 = (-0.27319 + -0.06762)/2.0
 sum -  nocc_ = 0.00178526
 On Iteration in Bisection 5
 a: 0.00179  b:-0.00110

 -0.22180 = (-0.27319 + -0.17041)/2.0
 sum -  nocc_ = 0.00025388
 On Iteration in Bisection 6
 a: 0.00025  b:-0.00110

 -0.24750 = (-0.27319 + -0.22180)/2.0
 sum -  nocc_ = -0.00039146
 On Iteration in Bisection 7
 a: -0.00039  b:-0.00110

 -0.23465 = (-0.24750 + -0.22180)/2.0
 sum -  nocc_ = -0.00006741
 On Iteration in Bisection 8
 a: -0.00007  b:-0.00039

 -0.22822 = (-0.23465 + -0.22180)/2.0
 sum -  nocc_ = 0.00009276
 On Iteration in Bisection 9
 a: 0.00009  b:-0.00007

 -0.23144 = (-0.23465 + -0.22822)/2.0
 sum -  nocc_ = 0.00001266
 On Iteration in Bisection 10
 a: 0.00001  b:-0.00007

 -0.23304 = (-0.23465 + -0.23144)/2.0
 sum -  nocc_ = -0.00002737
 On Iteration in Bisection 11
 a: -0.00003  b:-0.00007

 -0.23224 = (-0.23304 + -0.23144)/2.0
 sum -  nocc_ = -0.00000735
 On Iteration in Bisection 12
 a: -0.00001  b:-0.00003

 -0.23184 = (-0.23224 + -0.23144)/2.0
 sum -  nocc_ = 0.00000265
 On Iteration in Bisection 13
 a: 0.00000  b:-0.00001

 -0.23204 = (-0.23224 + -0.23184)/2.0
 sum -  nocc_ = -0.00000235
 On Iteration in Bisection 14
 a: -0.00000  b:-0.00001

 -0.23194 = (-0.23204 + -0.23184)/2.0
 sum -  nocc_ = 0.00000015
 On Iteration in Bisection 15
 a: 0.00000  b:-0.00000

 -0.23199 = (-0.23204 + -0.23194)/2.0
 sum -  nocc_ = -0.00000110
 On Iteration in Bisection 16
 a: -0.00000  b:-0.00000

 -0.23196 = (-0.23199 + -0.23194)/2.0
 sum -  nocc_ = -0.00000047
 On Iteration in Bisection 17
 a: -0.00000  b:-0.00000

 -0.23195 = (-0.23196 + -0.23194)/2.0
 sum -  nocc_ = -0.00000016
 On Iteration in Bisection 18
 a: -0.00000  b:-0.00000

 -0.23194 = (-0.23195 + -0.23194)/2.0
 sum -  nocc_ = -0.00000001
 ef = -0.23194 sum = 1.00000 

 Iter: 1  T:    20000.000  val:-0.231944  sumni 0.00000
 ne = 1.0000

 iter:2  failiter:2  energy:     -2.111379104397  total:     -1.053024687217  error:     -0.500680267326
 In Bisection function HOMO = -0.678  LUMO =  5.937

 2.62928 = (-0.67832 + 5.93688)/2.0
 sum -  nocc_ = 7.99719350
 On Iteration in Bisection 0
 a: 7.99719  b:-0.50000

 0.97548 = (-0.67832 + 2.62928)/2.0
 sum -  nocc_ = 2.05332095
 On Iteration in Bisection 1
 a: 2.05332  b:-0.50000

 0.14858 = (-0.67832 + 0.97548)/2.0
 sum -  nocc_ = 0.21042542
 On Iteration in Bisection 2
 a: 0.21043  b:-0.50000

 -0.26487 = (-0.67832 + 0.14858)/2.0
 sum -  nocc_ = -0.00108106
 On Iteration in Bisection 3
 a: -0.00108  b:-0.50000

 -0.05815 = (-0.26487 + 0.14858)/2.0
 sum -  nocc_ = 0.00975735
 On Iteration in Bisection 4
 a: 0.00976  b:-0.00108

 -0.16151 = (-0.26487 + -0.05815)/2.0
 sum -  nocc_ = 0.00164679
 On Iteration in Bisection 5
 a: 0.00165  b:-0.00108

 -0.21319 = (-0.26487 + -0.16151)/2.0
 sum -  nocc_ = 0.00020948
 On Iteration in Bisection 6
 a: 0.00021  b:-0.00108

 -0.23903 = (-0.26487 + -0.21319)/2.0
 sum -  nocc_ = -0.00040204
 On Iteration in Bisection 7
 a: -0.00040  b:-0.00108

 -0.22611 = (-0.23903 + -0.21319)/2.0
 sum -  nocc_ = -0.00009432
 On Iteration in Bisection 8
 a: -0.00009  b:-0.00040

 -0.21965 = (-0.22611 + -0.21319)/2.0
 sum -  nocc_ = 0.00005728
 On Iteration in Bisection 9
 a: 0.00006  b:-0.00009

 -0.22288 = (-0.22611 + -0.21965)/2.0
 sum -  nocc_ = -0.00001850
 On Iteration in Bisection 10
 a: -0.00002  b:-0.00009

 -0.22127 = (-0.22288 + -0.21965)/2.0
 sum -  nocc_ = 0.00001938
 On Iteration in Bisection 11
 a: 0.00002  b:-0.00002

 -0.22207 = (-0.22288 + -0.22127)/2.0
 sum -  nocc_ = 0.00000044
 On Iteration in Bisection 12
 a: 0.00000  b:-0.00002

 -0.22248 = (-0.22288 + -0.22207)/2.0
 sum -  nocc_ = -0.00000903
 On Iteration in Bisection 13
 a: -0.00001  b:-0.00002

 -0.22228 = (-0.22248 + -0.22207)/2.0
 sum -  nocc_ = -0.00000429
 On Iteration in Bisection 14
 a: -0.00000  b:-0.00001

 -0.22218 = (-0.22228 + -0.22207)/2.0
 sum -  nocc_ = -0.00000192
 On Iteration in Bisection 15
 a: -0.00000  b:-0.00000

 -0.22213 = (-0.22218 + -0.22207)/2.0
 sum -  nocc_ = -0.00000074
 On Iteration in Bisection 16
 a: -0.00000  b:-0.00000

 -0.22210 = (-0.22213 + -0.22207)/2.0
 sum -  nocc_ = -0.00000015
 On Iteration in Bisection 17
 a: -0.00000  b:-0.00000

 -0.22209 = (-0.22210 + -0.22207)/2.0
 sum -  nocc_ = 0.00000015
 On Iteration in Bisection 18
 a: 0.00000  b:-0.00000

 -0.22209 = (-0.22210 + -0.22209)/2.0
 sum -  nocc_ = -0.00000000
 ef = -0.22209 sum = 1.00000 

 Iter: 2  T:    20000.000  val:-0.222094  sumni 0.00000
 ne = 1.0000

 iter:3  failiter:3  energy:     -2.106487047545  total:     -1.048132630365  error:      0.004892056852
 In Bisection function HOMO = -0.678  LUMO =  5.939

 2.63052 = (-0.67760 + 5.93864)/2.0
 sum -  nocc_ = 7.99721179
 On Iteration in Bisection 0
 a: 7.99721  b:-0.50000

 0.97646 = (-0.67760 + 2.63052)/2.0
 sum -  nocc_ = 2.05324894
 On Iteration in Bisection 1
 a: 2.05325  b:-0.50000

 0.14943 = (-0.67760 + 0.97646)/2.0
 sum -  nocc_ = 0.21186883
 On Iteration in Bisection 2
 a: 0.21187  b:-0.50000

 -0.26409 = (-0.67760 + 0.14943)/2.0
 sum -  nocc_ = -0.00107677
 On Iteration in Bisection 3
 a: -0.00108  b:-0.50000

 -0.05733 = (-0.26409 + 0.14943)/2.0
 sum -  nocc_ = 0.00983422
 On Iteration in Bisection 4
 a: 0.00983  b:-0.00108

 -0.16071 = (-0.26409 + -0.05733)/2.0
 sum -  nocc_ = 0.00166188
 On Iteration in Bisection 5
 a: 0.00166  b:-0.00108

 -0.21240 = (-0.26409 + -0.16071)/2.0
 sum -  nocc_ = 0.00021664
 On Iteration in Bisection 6
 a: 0.00022  b:-0.00108

 -0.23824 = (-0.26409 + -0.21240)/2.0
 sum -  nocc_ = -0.00039674
 On Iteration in Bisection 7
 a: -0.00040  b:-0.00108

 -0.22532 = (-0.23824 + -0.21240)/2.0
 sum -  nocc_ = -0.00008822
 On Iteration in Bisection 8
 a: -0.00009  b:-0.00040

 -0.21886 = (-0.22532 + -0.21240)/2.0
 sum -  nocc_ = 0.00006388
 On Iteration in Bisection 9
 a: 0.00006  b:-0.00009

 -0.22209 = (-0.22532 + -0.21886)/2.0
 sum -  nocc_ = -0.00001216
 On Iteration in Bisection 10
 a: -0.00001  b:-0.00009

 -0.22048 = (-0.22209 + -0.21886)/2.0
 sum -  nocc_ = 0.00002585
 On Iteration in Bisection 11
 a: 0.00003  b:-0.00001

 -0.22128 = (-0.22209 + -0.22048)/2.0
 sum -  nocc_ = 0.00000685
 On Iteration in Bisection 12
 a: 0.00001  b:-0.00001

 -0.22169 = (-0.22209 + -0.22128)/2.0
 sum -  nocc_ = -0.00000265
 On Iteration in Bisection 13
 a: -0.00000  b:-0.00001

 -0.22148 = (-0.22169 + -0.22128)/2.0
 sum -  nocc_ = 0.00000210
 On Iteration in Bisection 14
 a: 0.00000  b:-0.00000

 -0.22159 = (-0.22169 + -0.22148)/2.0
 sum -  nocc_ = -0.00000028
 On Iteration in Bisection 15
 a: -0.00000  b:-0.00000

 -0.22154 = (-0.22159 + -0.22148)/2.0
 sum -  nocc_ = 0.00000091
 On Iteration in Bisection 16
 a: 0.00000  b:-0.00000

 -0.22156 = (-0.22159 + -0.22154)/2.0
 sum -  nocc_ = 0.00000032
 On Iteration in Bisection 17
 a: 0.00000  b:-0.00000

 -0.22157 = (-0.22159 + -0.22156)/2.0
 sum -  nocc_ = 0.00000002
 On Iteration in Bisection 18
 a: 0.00000  b:-0.00000

 -0.22158 = (-0.22159 + -0.22157)/2.0
 sum -  nocc_ = -0.00000013
 On Iteration in Bisection 19
 a: -0.00000  b:-0.00000

 -0.22158 = (-0.22158 + -0.22157)/2.0
 sum -  nocc_ = -0.00000006
 On Iteration in Bisection 20
 a: -0.00000  b:-0.00000

 -0.22157 = (-0.22158 + -0.22157)/2.0
 sum -  nocc_ = -0.00000002
 On Iteration in Bisection 21
 a: -0.00000  b:-0.00000

 -0.22157 = (-0.22157 + -0.22157)/2.0
 sum -  nocc_ = -0.00000000
 ef = -0.22157 sum = 1.00000 

 Iter: 3  T:    20000.000  val:-0.221574  sumni 0.00000
 ne = 1.0000

 iter:4  failiter:4  energy:     -2.105899354652  total:     -1.047544937472  error:      0.000587692894
 In Bisection function HOMO = -0.677  LUMO =  5.939

 2.63072 = (-0.67748 + 5.93892)/2.0
 sum -  nocc_ = 7.99721482
 On Iteration in Bisection 0
 a: 7.99721  b:-0.50000

 0.97662 = (-0.67748 + 2.63072)/2.0
 sum -  nocc_ = 2.05325004
 On Iteration in Bisection 1
 a: 2.05325  b:-0.50000

 0.14957 = (-0.67748 + 0.97662)/2.0
 sum -  nocc_ = 0.21213614
 On Iteration in Bisection 2
 a: 0.21214  b:-0.50000

 -0.26395 = (-0.67748 + 0.14957)/2.0
 sum -  nocc_ = -0.00107601
 On Iteration in Bisection 3
 a: -0.00108  b:-0.50000

 -0.05719 = (-0.26395 + 0.14957)/2.0
 sum -  nocc_ = 0.00984870
 On Iteration in Bisection 4
 a: 0.00985  b:-0.00108

 -0.16057 = (-0.26395 + -0.05719)/2.0
 sum -  nocc_ = 0.00166473
 On Iteration in Bisection 5
 a: 0.00166  b:-0.00108

 -0.21226 = (-0.26395 + -0.16057)/2.0
 sum -  nocc_ = 0.00021797
 On Iteration in Bisection 6
 a: 0.00022  b:-0.00108

 -0.23811 = (-0.26395 + -0.21226)/2.0
 sum -  nocc_ = -0.00039578
 On Iteration in Bisection 7
 a: -0.00040  b:-0.00108

 -0.22519 = (-0.23811 + -0.21226)/2.0
 sum -  nocc_ = -0.00008710
 On Iteration in Bisection 8
 a: -0.00009  b:-0.00040

 -0.21872 = (-0.22519 + -0.21226)/2.0
 sum -  nocc_ = 0.00006510
 On Iteration in Bisection 9
 a: 0.00007  b:-0.00009

 -0.22196 = (-0.22519 + -0.21872)/2.0
 sum -  nocc_ = -0.00001099
 On Iteration in Bisection 10
 a: -0.00001  b:-0.00009

 -0.22034 = (-0.22196 + -0.21872)/2.0
 sum -  nocc_ = 0.00002705
 On Iteration in Bisection 11
 a: 0.00003  b:-0.00001

 -0.22115 = (-0.22196 + -0.22034)/2.0
 sum -  nocc_ = 0.00000803
 On Iteration in Bisection 12
 a: 0.00001  b:-0.00001

 -0.22155 = (-0.22196 + -0.22115)/2.0
 sum -  nocc_ = -0.00000148
 On Iteration in Bisection 13
 a: -0.00000  b:-0.00001

 -0.22135 = (-0.22155 + -0.22115)/2.0
 sum -  nocc_ = 0.00000328
 On Iteration in Bisection 14
 a: 0.00000  b:-0.00000

 -0.22145 = (-0.22155 + -0.22135)/2.0
 sum -  nocc_ = 0.00000090
 On Iteration in Bisection 15
 a: 0.00000  b:-0.00000

 -0.22150 = (-0.22155 + -0.22145)/2.0
 sum -  nocc_ = -0.00000029
 On Iteration in Bisection 16
 a: -0.00000  b:-0.00000

 -0.22148 = (-0.22150 + -0.22145)/2.0
 sum -  nocc_ = 0.00000031
 On Iteration in Bisection 17
 a: 0.00000  b:-0.00000

 -0.22149 = (-0.22150 + -0.22148)/2.0
 sum -  nocc_ = 0.00000001
 ef = -0.22149 sum = 1.00000 

 Iter: 4  T:    20000.000  val:-0.221488  sumni 0.00000
 ne = 1.0000

 iter:5  failiter:5  energy:     -2.105795602187  total:     -1.047441185007  error:      0.000103752464
 In Bisection function HOMO = -0.677  LUMO =  5.939

 2.63075 = (-0.67746 + 5.93897)/2.0
 sum -  nocc_ = 7.99721532
 On Iteration in Bisection 0
 a: 7.99722  b:-0.50000

 0.97665 = (-0.67746 + 2.63075)/2.0
 sum -  nocc_ = 2.05325073
 On Iteration in Bisection 1
 a: 2.05325  b:-0.50000

 0.14960 = (-0.67746 + 0.97665)/2.0
 sum -  nocc_ = 0.21218135
 On Iteration in Bisection 2
 a: 0.21218  b:-0.50000

 -0.26393 = (-0.67746 + 0.14960)/2.0
 sum -  nocc_ = -0.00107589
 On Iteration in Bisection 3
 a: -0.00108  b:-0.50000

 -0.05717 = (-0.26393 + 0.14960)/2.0
 sum -  nocc_ = 0.00985115
 On Iteration in Bisection 4
 a: 0.00985  b:-0.00108

 -0.16055 = (-0.26393 + -0.05717)/2.0
 sum -  nocc_ = 0.00166521
 On Iteration in Bisection 5
 a: 0.00167  b:-0.00108

 -0.21224 = (-0.26393 + -0.16055)/2.0
 sum -  nocc_ = 0.00021819
 On Iteration in Bisection 6
 a: 0.00022  b:-0.00108

 -0.23809 = (-0.26393 + -0.21224)/2.0
 sum -  nocc_ = -0.00039562
 On Iteration in Bisection 7
 a: -0.00040  b:-0.00108

 -0.22516 = (-0.23809 + -0.21224)/2.0
 sum -  nocc_ = -0.00008691
 On Iteration in Bisection 8
 a: -0.00009  b:-0.00040

 -0.21870 = (-0.22516 + -0.21224)/2.0
 sum -  nocc_ = 0.00006530
 On Iteration in Bisection 9
 a: 0.00007  b:-0.00009

 -0.22193 = (-0.22516 + -0.21870)/2.0
 sum -  nocc_ = -0.00001079
 On Iteration in Bisection 10
 a: -0.00001  b:-0.00009

 -0.22032 = (-0.22193 + -0.21870)/2.0
 sum -  nocc_ = 0.00002725
 On Iteration in Bisection 11
 a: 0.00003  b:-0.00001

 -0.22112 = (-0.22193 + -0.22032)/2.0
 sum -  nocc_ = 0.00000823
 On Iteration in Bisection 12
 a: 0.00001  b:-0.00001

 -0.22153 = (-0.22193 + -0.22112)/2.0
 sum -  nocc_ = -0.00000128
 On Iteration in Bisection 13
 a: -0.00000  b:-0.00001

 -0.22133 = (-0.22153 + -0.22112)/2.0
 sum -  nocc_ = 0.00000348
 On Iteration in Bisection 14
 a: 0.00000  b:-0.00000

 -0.22143 = (-0.22153 + -0.22133)/2.0
 sum -  nocc_ = 0.00000110
 On Iteration in Bisection 15
 a: 0.00000  b:-0.00000

 -0.22148 = (-0.22153 + -0.22143)/2.0
 sum -  nocc_ = -0.00000009
 On Iteration in Bisection 16
 a: -0.00000  b:-0.00000

 -0.22145 = (-0.22148 + -0.22143)/2.0
 sum -  nocc_ = 0.00000050
 On Iteration in Bisection 17
 a: 0.00000  b:-0.00000

 -0.22147 = (-0.22148 + -0.22145)/2.0
 sum -  nocc_ = 0.00000021
 On Iteration in Bisection 18
 a: 0.00000  b:-0.00000

 -0.22147 = (-0.22148 + -0.22147)/2.0
 sum -  nocc_ = 0.00000006
 On Iteration in Bisection 19
 a: 0.00000  b:-0.00000

 -0.22147 = (-0.22148 + -0.22147)/2.0
 sum -  nocc_ = -0.00000002
 On Iteration in Bisection 20
 a: -0.00000  b:-0.00000

 -0.22147 = (-0.22147 + -0.22147)/2.0
 sum -  nocc_ = 0.00000002
 On Iteration in Bisection 21
 a: 0.00000  b:-0.00000

 -0.22147 = (-0.22147 + -0.22147)/2.0
 sum -  nocc_ = 0.00000000
 ef = -0.22147 sum = 1.00000 

 Iter: 5  T:    20000.000  val:-0.221474  sumni 0.00000
 ne = 1.0000

 iter:6  failiter:6  energy:     -2.105778094876  total:     -1.047423677696  error:      0.000017507311
 In Bisection function HOMO = -0.677  LUMO =  5.939

 2.63076 = (-0.67745 + 5.93897)/2.0
 sum -  nocc_ = 7.99721541
 On Iteration in Bisection 0
 a: 7.99722  b:-0.50000

 0.97665 = (-0.67745 + 2.63076)/2.0
 sum -  nocc_ = 2.05325090
 On Iteration in Bisection 1
 a: 2.05325  b:-0.50000

 0.14960 = (-0.67745 + 0.97665)/2.0
 sum -  nocc_ = 0.21218916
 On Iteration in Bisection 2
 a: 0.21219  b:-0.50000

 -0.26393 = (-0.67745 + 0.14960)/2.0
 sum -  nocc_ = -0.00107587
 On Iteration in Bisection 3
 a: -0.00108  b:-0.50000

 -0.05716 = (-0.26393 + 0.14960)/2.0
 sum -  nocc_ = 0.00985157
 On Iteration in Bisection 4
 a: 0.00985  b:-0.00108

 -0.16055 = (-0.26393 + -0.05716)/2.0
 sum -  nocc_ = 0.00166530
 On Iteration in Bisection 5
 a: 0.00167  b:-0.00108

 -0.21224 = (-0.26393 + -0.16055)/2.0
 sum -  nocc_ = 0.00021823
 On Iteration in Bisection 6
 a: 0.00022  b:-0.00108

 -0.23808 = (-0.26393 + -0.21224)/2.0
 sum -  nocc_ = -0.00039559
 On Iteration in Bisection 7
 a: -0.00040  b:-0.00108

 -0.22516 = (-0.23808 + -0.21224)/2.0
 sum -  nocc_ = -0.00008687
 On Iteration in Bisection 8
 a: -0.00009  b:-0.00040

 -0.21870 = (-0.22516 + -0.21224)/2.0
 sum -  nocc_ = 0.00006534
 On Iteration in Bisection 9
 a: 0.00007  b:-0.00009

 -0.22193 = (-0.22516 + -0.21870)/2.0
 sum -  nocc_ = -0.00001075
 On Iteration in Bisection 10
 a: -0.00001  b:-0.00009

 -0.22031 = (-0.22193 + -0.21870)/2.0
 sum -  nocc_ = 0.00002728
 On Iteration in Bisection 11
 a: 0.00003  b:-0.00001

 -0.22112 = (-0.22193 + -0.22031)/2.0
 sum -  nocc_ = 0.00000826
 On Iteration in Bisection 12
 a: 0.00001  b:-0.00001

 -0.22152 = (-0.22193 + -0.22112)/2.0
 sum -  nocc_ = -0.00000124
 On Iteration in Bisection 13
 a: -0.00000  b:-0.00001

 -0.22132 = (-0.22152 + -0.22112)/2.0
 sum -  nocc_ = 0.00000351
 On Iteration in Bisection 14
 a: 0.00000  b:-0.00000

 -0.22142 = (-0.22152 + -0.22132)/2.0
 sum -  nocc_ = 0.00000113
 On Iteration in Bisection 15
 a: 0.00000  b:-0.00000

 -0.22147 = (-0.22152 + -0.22142)/2.0
 sum -  nocc_ = -0.00000006
 On Iteration in Bisection 16
 a: -0.00000  b:-0.00000

 -0.22145 = (-0.22147 + -0.22142)/2.0
 sum -  nocc_ = 0.00000054
 On Iteration in Bisection 17
 a: 0.00000  b:-0.00000

 -0.22146 = (-0.22147 + -0.22145)/2.0
 sum -  nocc_ = 0.00000024
 On Iteration in Bisection 18
 a: 0.00000  b:-0.00000

 -0.22147 = (-0.22147 + -0.22146)/2.0
 sum -  nocc_ = 0.00000009
 On Iteration in Bisection 19
 a: 0.00000  b:-0.00000

 -0.22147 = (-0.22147 + -0.22147)/2.0
 sum -  nocc_ = 0.00000002
 On Iteration in Bisection 20
 a: 0.00000  b:-0.00000

 -0.22147 = (-0.22147 + -0.22147)/2.0
 sum -  nocc_ = -0.00000002
 On Iteration in Bisection 21
 a: -0.00000  b:-0.00000

 -0.22147 = (-0.22147 + -0.22147)/2.0
 sum -  nocc_ = 0.00000000
 ef = -0.22147 sum = 1.00000 

 Iter: 6  T:    20000.000  val:-0.221472  sumni 0.00000
 ne = 1.0000

 iter:7  failiter:7  energy:     -2.105775060335  total:     -1.047420643155  error:      0.000003034541
 In Bisection function HOMO = -0.677  LUMO =  5.939

 2.63076 = (-0.67745 + 5.93898)/2.0
 sum -  nocc_ = 7.99721542
 On Iteration in Bisection 0
 a: 7.99722  b:-0.50000

 0.97665 = (-0.67745 + 2.63076)/2.0
 sum -  nocc_ = 2.05325094
 On Iteration in Bisection 1
 a: 2.05325  b:-0.50000

 0.14960 = (-0.67745 + 0.97665)/2.0
 sum -  nocc_ = 0.21219055
 On Iteration in Bisection 2
 a: 0.21219  b:-0.50000

 -0.26393 = (-0.67745 + 0.14960)/2.0
 sum -  nocc_ = -0.00107586
 On Iteration in Bisection 3
 a: -0.00108  b:-0.50000

 -0.05716 = (-0.26393 + 0.14960)/2.0
 sum -  nocc_ = 0.00985165
 On Iteration in Bisection 4
 a: 0.00985  b:-0.00108

 -0.16054 = (-0.26393 + -0.05716)/2.0
 sum -  nocc_ = 0.00166531
 On Iteration in Bisection 5
 a: 0.00167  b:-0.00108

 -0.21224 = (-0.26393 + -0.16054)/2.0
 sum -  nocc_ = 0.00021824
 On Iteration in Bisection 6
 a: 0.00022  b:-0.00108

 -0.23808 = (-0.26393 + -0.21224)/2.0
 sum -  nocc_ = -0.00039558
 On Iteration in Bisection 7
 a: -0.00040  b:-0.00108

 -0.22516 = (-0.23808 + -0.21224)/2.0
 sum -  nocc_ = -0.00008687
 On Iteration in Bisection 8
 a: -0.00009  b:-0.00040

 -0.21870 = (-0.22516 + -0.21224)/2.0
 sum -  nocc_ = 0.00006535
 On Iteration in Bisection 9
 a: 0.00007  b:-0.00009

 -0.22193 = (-0.22516 + -0.21870)/2.0
 sum -  nocc_ = -0.00001075
 On Iteration in Bisection 10
 a: -0.00001  b:-0.00009

 -0.22031 = (-0.22193 + -0.21870)/2.0
 sum -  nocc_ = 0.00002729
 On Iteration in Bisection 11
 a: 0.00003  b:-0.00001

 -0.22112 = (-0.22193 + -0.22031)/2.0
 sum -  nocc_ = 0.00000827
 On Iteration in Bisection 12
 a: 0.00001  b:-0.00001

 -0.22152 = (-0.22193 + -0.22112)/2.0
 sum -  nocc_ = -0.00000124
 On Iteration in Bisection 13
 a: -0.00000  b:-0.00001

 -0.22132 = (-0.22152 + -0.22112)/2.0
 sum -  nocc_ = 0.00000352
 On Iteration in Bisection 14
 a: 0.00000  b:-0.00000

 -0.22142 = (-0.22152 + -0.22132)/2.0
 sum -  nocc_ = 0.00000114
 On Iteration in Bisection 15
 a: 0.00000  b:-0.00000

 -0.22147 = (-0.22152 + -0.22142)/2.0
 sum -  nocc_ = -0.00000005
 On Iteration in Bisection 16
 a: -0.00000  b:-0.00000

 -0.22145 = (-0.22147 + -0.22142)/2.0
 sum -  nocc_ = 0.00000054
 On Iteration in Bisection 17
 a: 0.00000  b:-0.00000

 -0.22146 = (-0.22147 + -0.22145)/2.0
 sum -  nocc_ = 0.00000025
 On Iteration in Bisection 18
 a: 0.00000  b:-0.00000

 -0.22147 = (-0.22147 + -0.22146)/2.0
 sum -  nocc_ = 0.00000010
 On Iteration in Bisection 19
 a: 0.00000  b:-0.00000

 -0.22147 = (-0.22147 + -0.22147)/2.0
 sum -  nocc_ = 0.00000002
 On Iteration in Bisection 20
 a: 0.00000  b:-0.00000

 -0.22147 = (-0.22147 + -0.22147)/2.0
 sum -  nocc_ = -0.00000001
 On Iteration in Bisection 21
 a: -0.00000  b:-0.00000

 -0.22147 = (-0.22147 + -0.22147)/2.0
 sum -  nocc_ = 0.00000001
 ef = -0.22147 sum = 1.00000 

 Iter: 7  T:    20000.000  val:-0.221471  sumni 0.00000
 ne = 1.0000

 iter:8  failiter:8  energy:     -2.105774523916  total:     -1.047420106736  error:      0.000000536419
 In Bisection function HOMO = -0.677  LUMO =  5.939

 2.63076 = (-0.67745 + 5.93898)/2.0
 sum -  nocc_ = 7.99721542
 On Iteration in Bisection 0
 a: 7.99722  b:-0.50000

 0.97665 = (-0.67745 + 2.63076)/2.0
 sum -  nocc_ = 2.05325095
 On Iteration in Bisection 1
 a: 2.05325  b:-0.50000

 0.14960 = (-0.67745 + 0.97665)/2.0
 sum -  nocc_ = 0.21219081
 On Iteration in Bisection 2
 a: 0.21219  b:-0.50000

 -0.26393 = (-0.67745 + 0.14960)/2.0
 sum -  nocc_ = -0.00107586
 On Iteration in Bisection 3
 a: -0.00108  b:-0.50000

 -0.05716 = (-0.26393 + 0.14960)/2.0
 sum -  nocc_ = 0.00985166
 On Iteration in Bisection 4
 a: 0.00985  b:-0.00108

 -0.16054 = (-0.26393 + -0.05716)/2.0
 sum -  nocc_ = 0.00166531
 On Iteration in Bisection 5
 a: 0.00167  b:-0.00108

 -0.21224 = (-0.26393 + -0.16054)/2.0
 sum -  nocc_ = 0.00021824
 On Iteration in Bisection 6
 a: 0.00022  b:-0.00108

 -0.23808 = (-0.26393 + -0.21224)/2.0
 sum -  nocc_ = -0.00039558
 On Iteration in Bisection 7
 a: -0.00040  b:-0.00108

 -0.22516 = (-0.23808 + -0.21224)/2.0
 sum -  nocc_ = -0.00008687
 On Iteration in Bisection 8
 a: -0.00009  b:-0.00040

 -0.21870 = (-0.22516 + -0.21224)/2.0
 sum -  nocc_ = 0.00006535
 On Iteration in Bisection 9
 a: 0.00007  b:-0.00009

 -0.22193 = (-0.22516 + -0.21870)/2.0
 sum -  nocc_ = -0.00001075
 On Iteration in Bisection 10
 a: -0.00001  b:-0.00009

 -0.22031 = (-0.22193 + -0.21870)/2.0
 sum -  nocc_ = 0.00002729
 On Iteration in Bisection 11
 a: 0.00003  b:-0.00001

 -0.22112 = (-0.22193 + -0.22031)/2.0
 sum -  nocc_ = 0.00000827
 On Iteration in Bisection 12
 a: 0.00001  b:-0.00001

 -0.22152 = (-0.22193 + -0.22112)/2.0
 sum -  nocc_ = -0.00000124
 On Iteration in Bisection 13
 a: -0.00000  b:-0.00001

 -0.22132 = (-0.22152 + -0.22112)/2.0
 sum -  nocc_ = 0.00000352
 On Iteration in Bisection 14
 a: 0.00000  b:-0.00000

 -0.22142 = (-0.22152 + -0.22132)/2.0
 sum -  nocc_ = 0.00000114
 On Iteration in Bisection 15
 a: 0.00000  b:-0.00000

 -0.22147 = (-0.22152 + -0.22142)/2.0
 sum -  nocc_ = -0.00000005
 On Iteration in Bisection 16
 a: -0.00000  b:-0.00000

 -0.22145 = (-0.22147 + -0.22142)/2.0
 sum -  nocc_ = 0.00000055
 On Iteration in Bisection 17
 a: 0.00000  b:-0.00000

 -0.22146 = (-0.22147 + -0.22145)/2.0
 sum -  nocc_ = 0.00000025
 On Iteration in Bisection 18
 a: 0.00000  b:-0.00000

 -0.22147 = (-0.22147 + -0.22146)/2.0
 sum -  nocc_ = 0.00000010
 On Iteration in Bisection 19
 a: 0.00000  b:-0.00000

 -0.22147 = (-0.22147 + -0.22147)/2.0
 sum -  nocc_ = 0.00000003
 On Iteration in Bisection 20
 a: 0.00000  b:-0.00000

 -0.22147 = (-0.22147 + -0.22147)/2.0
 sum -  nocc_ = -0.00000001
 On Iteration in Bisection 21
 a: -0.00000  b:-0.00000

 -0.22147 = (-0.22147 + -0.22147)/2.0
 sum -  nocc_ = 0.00000001
 ef = -0.22147 sum = 1.00000 

 Iter: 8  T:    20000.000  val:-0.221471  sumni 0.00000
 ne = 1.0000

 iter:9  failiter:9  energy:     -2.105774419166  total:     -1.047420001986  error:      0.000000104750
 In Bisection function HOMO = -0.677  LUMO =  5.939

 2.63076 = (-0.67745 + 5.93898)/2.0
 sum -  nocc_ = 7.99721542
 On Iteration in Bisection 0
 a: 7.99722  b:-0.50000

 0.97665 = (-0.67745 + 2.63076)/2.0
 sum -  nocc_ = 2.05325095
 On Iteration in Bisection 1
 a: 2.05325  b:-0.50000

 0.14960 = (-0.67745 + 0.97665)/2.0
 sum -  nocc_ = 0.21219086
 On Iteration in Bisection 2
 a: 0.21219  b:-0.50000

 -0.26393 = (-0.67745 + 0.14960)/2.0
 sum -  nocc_ = -0.00107586
 On Iteration in Bisection 3
 a: -0.00108  b:-0.50000

 -0.05716 = (-0.26393 + 0.14960)/2.0
 sum -  nocc_ = 0.00985167
 On Iteration in Bisection 4
 a: 0.00985  b:-0.00108

 -0.16054 = (-0.26393 + -0.05716)/2.0
 sum -  nocc_ = 0.00166531
 On Iteration in Bisection 5
 a: 0.00167  b:-0.00108

 -0.21224 = (-0.26393 + -0.16054)/2.0
 sum -  nocc_ = 0.00021824
 On Iteration in Bisection 6
 a: 0.00022  b:-0.00108

 -0.23808 = (-0.26393 + -0.21224)/2.0
 sum -  nocc_ = -0.00039558
 On Iteration in Bisection 7
 a: -0.00040  b:-0.00108

 -0.22516 = (-0.23808 + -0.21224)/2.0
 sum -  nocc_ = -0.00008687
 On Iteration in Bisection 8
 a: -0.00009  b:-0.00040

 -0.21870 = (-0.22516 + -0.21224)/2.0
 sum -  nocc_ = 0.00006535
 On Iteration in Bisection 9
 a: 0.00007  b:-0.00009

 -0.22193 = (-0.22516 + -0.21870)/2.0
 sum -  nocc_ = -0.00001075
 On Iteration in Bisection 10
 a: -0.00001  b:-0.00009

 -0.22031 = (-0.22193 + -0.21870)/2.0
 sum -  nocc_ = 0.00002729
 On Iteration in Bisection 11
 a: 0.00003  b:-0.00001

 -0.22112 = (-0.22193 + -0.22031)/2.0
 sum -  nocc_ = 0.00000827
 On Iteration in Bisection 12
 a: 0.00001  b:-0.00001

 -0.22152 = (-0.22193 + -0.22112)/2.0
 sum -  nocc_ = -0.00000124
 On Iteration in Bisection 13
 a: -0.00000  b:-0.00001

 -0.22132 = (-0.22152 + -0.22112)/2.0
 sum -  nocc_ = 0.00000352
 On Iteration in Bisection 14
 a: 0.00000  b:-0.00000

 -0.22142 = (-0.22152 + -0.22132)/2.0
 sum -  nocc_ = 0.00000114
 On Iteration in Bisection 15
 a: 0.00000  b:-0.00000

 -0.22147 = (-0.22152 + -0.22142)/2.0
 sum -  nocc_ = -0.00000005
 On Iteration in Bisection 16
 a: -0.00000  b:-0.00000

 -0.22145 = (-0.22147 + -0.22142)/2.0
 sum -  nocc_ = 0.00000055
 On Iteration in Bisection 17
 a: 0.00000  b:-0.00000

 -0.22146 = (-0.22147 + -0.22145)/2.0
 sum -  nocc_ = 0.00000025
 On Iteration in Bisection 18
 a: 0.00000  b:-0.00000

 -0.22147 = (-0.22147 + -0.22146)/2.0
 sum -  nocc_ = 0.00000010
 On Iteration in Bisection 19
 a: 0.00000  b:-0.00000

 -0.22147 = (-0.22147 + -0.22147)/2.0
 sum -  nocc_ = 0.00000003
 On Iteration in Bisection 20
 a: 0.00000  b:-0.00000

 -0.22147 = (-0.22147 + -0.22147)/2.0
 sum -  nocc_ = -0.00000001
 On Iteration in Bisection 21
 a: -0.00000  b:-0.00000

 -0.22147 = (-0.22147 + -0.22147)/2.0
 sum -  nocc_ = 0.00000001
 ef = -0.22147 sum = 1.00000 

 Iter: 9  T:    20000.000  val:-0.221471  sumni 0.00000
 ne = 1.0000

 iter:10  failiter:10  energy:     -2.105774399398  total:     -1.047419982218  error:      0.000000019768
 In Bisection function HOMO = -0.677  LUMO =  5.939

 2.63076 = (-0.67745 + 5.93898)/2.0
 sum -  nocc_ = 7.99721542
 On Iteration in Bisection 0
 a: 7.99722  b:-0.50000

 0.97665 = (-0.67745 + 2.63076)/2.0
 sum -  nocc_ = 2.05325095
 On Iteration in Bisection 1
 a: 2.05325  b:-0.50000

 0.14960 = (-0.67745 + 0.97665)/2.0
 sum -  nocc_ = 0.21219087
 On Iteration in Bisection 2
 a: 0.21219  b:-0.50000

 -0.26393 = (-0.67745 + 0.14960)/2.0
 sum -  nocc_ = -0.00107586
 On Iteration in Bisection 3
 a: -0.00108  b:-0.50000

 -0.05716 = (-0.26393 + 0.14960)/2.0
 sum -  nocc_ = 0.00985167
 On Iteration in Bisection 4
 a: 0.00985  b:-0.00108

 -0.16054 = (-0.26393 + -0.05716)/2.0
 sum -  nocc_ = 0.00166531
 On Iteration in Bisection 5
 a: 0.00167  b:-0.00108

 -0.21224 = (-0.26393 + -0.16054)/2.0
 sum -  nocc_ = 0.00021824
 On Iteration in Bisection 6
 a: 0.00022  b:-0.00108

 -0.23808 = (-0.26393 + -0.21224)/2.0
 sum -  nocc_ = -0.00039558
 On Iteration in Bisection 7
 a: -0.00040  b:-0.00108

 -0.22516 = (-0.23808 + -0.21224)/2.0
 sum -  nocc_ = -0.00008687
 On Iteration in Bisection 8
 a: -0.00009  b:-0.00040

 -0.21870 = (-0.22516 + -0.21224)/2.0
 sum -  nocc_ = 0.00006535
 On Iteration in Bisection 9
 a: 0.00007  b:-0.00009

 -0.22193 = (-0.22516 + -0.21870)/2.0
 sum -  nocc_ = -0.00001075
 On Iteration in Bisection 10
 a: -0.00001  b:-0.00009

 -0.22031 = (-0.22193 + -0.21870)/2.0
 sum -  nocc_ = 0.00002729
 On Iteration in Bisection 11
 a: 0.00003  b:-0.00001

 -0.22112 = (-0.22193 + -0.22031)/2.0
 sum -  nocc_ = 0.00000827
 On Iteration in Bisection 12
 a: 0.00001  b:-0.00001

 -0.22152 = (-0.22193 + -0.22112)/2.0
 sum -  nocc_ = -0.00000124
 On Iteration in Bisection 13
 a: -0.00000  b:-0.00001

 -0.22132 = (-0.22152 + -0.22112)/2.0
 sum -  nocc_ = 0.00000352
 On Iteration in Bisection 14
 a: 0.00000  b:-0.00000

 -0.22142 = (-0.22152 + -0.22132)/2.0
 sum -  nocc_ = 0.00000114
 On Iteration in Bisection 15
 a: 0.00000  b:-0.00000

 -0.22147 = (-0.22152 + -0.22142)/2.0
 sum -  nocc_ = -0.00000005
 On Iteration in Bisection 16
 a: -0.00000  b:-0.00000

 -0.22145 = (-0.22147 + -0.22142)/2.0
 sum -  nocc_ = 0.00000055
 On Iteration in Bisection 17
 a: 0.00000  b:-0.00000

 -0.22146 = (-0.22147 + -0.22145)/2.0
 sum -  nocc_ = 0.00000025
 On Iteration in Bisection 18
 a: 0.00000  b:-0.00000

 -0.22147 = (-0.22147 + -0.22146)/2.0
 sum -  nocc_ = 0.00000010
 On Iteration in Bisection 19
 a: 0.00000  b:-0.00000

 -0.22147 = (-0.22147 + -0.22147)/2.0
 sum -  nocc_ = 0.00000003
 On Iteration in Bisection 20
 a: 0.00000  b:-0.00000

 -0.22147 = (-0.22147 + -0.22147)/2.0
 sum -  nocc_ = -0.00000001
 On Iteration in Bisection 21
 a: -0.00000  b:-0.00000

 -0.22147 = (-0.22147 + -0.22147)/2.0
 sum -  nocc_ = 0.00000001
 ef = -0.22147 sum = 1.00000 

 Iter: 10  T:    20000.000  val:-0.221471  sumni 0.00000
 ne = 1.0000

 iter:11  failiter:11  energy:     -2.105774395586  total:     -1.047419978406  error:      0.000000003812
 In Bisection function HOMO = -0.677  LUMO =  5.939

 2.63076 = (-0.67745 + 5.93898)/2.0
 sum -  nocc_ = 7.99721542
 On Iteration in Bisection 0
 a: 7.99722  b:-0.50000

 0.97665 = (-0.67745 + 2.63076)/2.0
 sum -  nocc_ = 2.05325095
 On Iteration in Bisection 1
 a: 2.05325  b:-0.50000

 0.14960 = (-0.67745 + 0.97665)/2.0
 sum -  nocc_ = 0.21219087
 On Iteration in Bisection 2
 a: 0.21219  b:-0.50000

 -0.26393 = (-0.67745 + 0.14960)/2.0
 sum -  nocc_ = -0.00107586
 On Iteration in Bisection 3
 a: -0.00108  b:-0.50000

 -0.05716 = (-0.26393 + 0.14960)/2.0
 sum -  nocc_ = 0.00985167
 On Iteration in Bisection 4
 a: 0.00985  b:-0.00108

 -0.16054 = (-0.26393 + -0.05716)/2.0
 sum -  nocc_ = 0.00166531
 On Iteration in Bisection 5
 a: 0.00167  b:-0.00108

 -0.21224 = (-0.26393 + -0.16054)/2.0
 sum -  nocc_ = 0.00021824
 On Iteration in Bisection 6
 a: 0.00022  b:-0.00108

 -0.23808 = (-0.26393 + -0.21224)/2.0
 sum -  nocc_ = -0.00039558
 On Iteration in Bisection 7
 a: -0.00040  b:-0.00108

 -0.22516 = (-0.23808 + -0.21224)/2.0
 sum -  nocc_ = -0.00008687
 On Iteration in Bisection 8
 a: -0.00009  b:-0.00040

 -0.21870 = (-0.22516 + -0.21224)/2.0
 sum -  nocc_ = 0.00006535
 On Iteration in Bisection 9
 a: 0.00007  b:-0.00009

 -0.22193 = (-0.22516 + -0.21870)/2.0
 sum -  nocc_ = -0.00001075
 On Iteration in Bisection 10
 a: -0.00001  b:-0.00009

 -0.22031 = (-0.22193 + -0.21870)/2.0
 sum -  nocc_ = 0.00002729
 On Iteration in Bisection 11
 a: 0.00003  b:-0.00001

 -0.22112 = (-0.22193 + -0.22031)/2.0
 sum -  nocc_ = 0.00000827
 On Iteration in Bisection 12
 a: 0.00001  b:-0.00001

 -0.22152 = (-0.22193 + -0.22112)/2.0
 sum -  nocc_ = -0.00000124
 On Iteration in Bisection 13
 a: -0.00000  b:-0.00001

 -0.22132 = (-0.22152 + -0.22112)/2.0
 sum -  nocc_ = 0.00000352
 On Iteration in Bisection 14
 a: 0.00000  b:-0.00000

 -0.22142 = (-0.22152 + -0.22132)/2.0
 sum -  nocc_ = 0.00000114
 On Iteration in Bisection 15
 a: 0.00000  b:-0.00000

 -0.22147 = (-0.22152 + -0.22142)/2.0
 sum -  nocc_ = -0.00000005
 On Iteration in Bisection 16
 a: -0.00000  b:-0.00000

 -0.22145 = (-0.22147 + -0.22142)/2.0
 sum -  nocc_ = 0.00000055
 On Iteration in Bisection 17
 a: 0.00000  b:-0.00000

 -0.22146 = (-0.22147 + -0.22145)/2.0
 sum -  nocc_ = 0.00000025
 On Iteration in Bisection 18
 a: 0.00000  b:-0.00000

 -0.22147 = (-0.22147 + -0.22146)/2.0
 sum -  nocc_ = 0.00000010
 On Iteration in Bisection 19
 a: 0.00000  b:-0.00000

 -0.22147 = (-0.22147 + -0.22147)/2.0
 sum -  nocc_ = 0.00000003
 On Iteration in Bisection 20
 a: 0.00000  b:-0.00000

 -0.22147 = (-0.22147 + -0.22147)/2.0
 sum -  nocc_ = -0.00000001
 On Iteration in Bisection 21
 a: -0.00000  b:-0.00000

 -0.22147 = (-0.22147 + -0.22147)/2.0
 sum -  nocc_ = 0.00000001
 ef = -0.22147 sum = 1.00000 

 Iter: 11  T:    20000.000  val:-0.221471  sumni 0.00000
 ne = 1.0000

 iter:12  failiter:12  energy:     -2.105774394838  total:     -1.047419977658  error:      0.000000000749
 In Bisection function HOMO = -0.677  LUMO =  5.939

 2.63076 = (-0.67745 + 5.93898)/2.0
 sum -  nocc_ = 7.99721542
 On Iteration in Bisection 0
 a: 7.99722  b:-0.50000

 0.97665 = (-0.67745 + 2.63076)/2.0
 sum -  nocc_ = 2.05325095
 On Iteration in Bisection 1
 a: 2.05325  b:-0.50000

 0.14960 = (-0.67745 + 0.97665)/2.0
 sum -  nocc_ = 0.21219087
 On Iteration in Bisection 2
 a: 0.21219  b:-0.50000

 -0.26393 = (-0.67745 + 0.14960)/2.0
 sum -  nocc_ = -0.00107586
 On Iteration in Bisection 3
 a: -0.00108  b:-0.50000

 -0.05716 = (-0.26393 + 0.14960)/2.0
 sum -  nocc_ = 0.00985167
 On Iteration in Bisection 4
 a: 0.00985  b:-0.00108

 -0.16054 = (-0.26393 + -0.05716)/2.0
 sum -  nocc_ = 0.00166531
 On Iteration in Bisection 5
 a: 0.00167  b:-0.00108

 -0.21224 = (-0.26393 + -0.16054)/2.0
 sum -  nocc_ = 0.00021824
 On Iteration in Bisection 6
 a: 0.00022  b:-0.00108

 -0.23808 = (-0.26393 + -0.21224)/2.0
 sum -  nocc_ = -0.00039558
 On Iteration in Bisection 7
 a: -0.00040  b:-0.00108

 -0.22516 = (-0.23808 + -0.21224)/2.0
 sum -  nocc_ = -0.00008687
 On Iteration in Bisection 8
 a: -0.00009  b:-0.00040

 -0.21870 = (-0.22516 + -0.21224)/2.0
 sum -  nocc_ = 0.00006535
 On Iteration in Bisection 9
 a: 0.00007  b:-0.00009

 -0.22193 = (-0.22516 + -0.21870)/2.0
 sum -  nocc_ = -0.00001075
 On Iteration in Bisection 10
 a: -0.00001  b:-0.00009

 -0.22031 = (-0.22193 + -0.21870)/2.0
 sum -  nocc_ = 0.00002729
 On Iteration in Bisection 11
 a: 0.00003  b:-0.00001

 -0.22112 = (-0.22193 + -0.22031)/2.0
 sum -  nocc_ = 0.00000827
 On Iteration in Bisection 12
 a: 0.00001  b:-0.00001

 -0.22152 = (-0.22193 + -0.22112)/2.0
 sum -  nocc_ = -0.00000124
 On Iteration in Bisection 13
 a: -0.00000  b:-0.00001

 -0.22132 = (-0.22152 + -0.22112)/2.0
 sum -  nocc_ = 0.00000352
 On Iteration in Bisection 14
 a: 0.00000  b:-0.00000

 -0.22142 = (-0.22152 + -0.22132)/2.0
 sum -  nocc_ = 0.00000114
 On Iteration in Bisection 15
 a: 0.00000  b:-0.00000

 -0.22147 = (-0.22152 + -0.22142)/2.0
 sum -  nocc_ = -0.00000005
 On Iteration in Bisection 16
 a: -0.00000  b:-0.00000

 -0.22145 = (-0.22147 + -0.22142)/2.0
 sum -  nocc_ = 0.00000055
 On Iteration in Bisection 17
 a: 0.00000  b:-0.00000

 -0.22146 = (-0.22147 + -0.22145)/2.0
 sum -  nocc_ = 0.00000025
 On Iteration in Bisection 18
 a: 0.00000  b:-0.00000

 -0.22147 = (-0.22147 + -0.22146)/2.0
 sum -  nocc_ = 0.00000010
 On Iteration in Bisection 19
 a: 0.00000  b:-0.00000

 -0.22147 = (-0.22147 + -0.22147)/2.0
 sum -  nocc_ = 0.00000003
 On Iteration in Bisection 20
 a: 0.00000  b:-0.00000

 -0.22147 = (-0.22147 + -0.22147)/2.0
 sum -  nocc_ = -0.00000001
 On Iteration in Bisection 21
 a: -0.00000  b:-0.00000

 -0.22147 = (-0.22147 + -0.22147)/2.0
 sum -  nocc_ = 0.00000001
 ef = -0.22147 sum = 1.00000 

 Iter: 12  T:    20000.000  val:-0.221471  sumni 0.00000
 ne = 1.0000

 iter:13  failiter:13  energy:     -2.105774394689  total:     -1.047419977509  error:      0.000000000149
 In Bisection function HOMO = -0.677  LUMO =  5.939

 2.63076 = (-0.67745 + 5.93898)/2.0
 sum -  nocc_ = 7.99721542
 On Iteration in Bisection 0
 a: 7.99722  b:-0.50000

 0.97665 = (-0.67745 + 2.63076)/2.0
 sum -  nocc_ = 2.05325095
 On Iteration in Bisection 1
 a: 2.05325  b:-0.50000

 0.14960 = (-0.67745 + 0.97665)/2.0
 sum -  nocc_ = 0.21219087
 On Iteration in Bisection 2
 a: 0.21219  b:-0.50000

 -0.26393 = (-0.67745 + 0.14960)/2.0
 sum -  nocc_ = -0.00107586
 On Iteration in Bisection 3
 a: -0.00108  b:-0.50000

 -0.05716 = (-0.26393 + 0.14960)/2.0
 sum -  nocc_ = 0.00985167
 On Iteration in Bisection 4
 a: 0.00985  b:-0.00108

 -0.16054 = (-0.26393 + -0.05716)/2.0
 sum -  nocc_ = 0.00166531
 On Iteration in Bisection 5
 a: 0.00167  b:-0.00108

 -0.21224 = (-0.26393 + -0.16054)/2.0
 sum -  nocc_ = 0.00021824
 On Iteration in Bisection 6
 a: 0.00022  b:-0.00108

 -0.23808 = (-0.26393 + -0.21224)/2.0
 sum -  nocc_ = -0.00039558
 On Iteration in Bisection 7
 a: -0.00040  b:-0.00108

 -0.22516 = (-0.23808 + -0.21224)/2.0
 sum -  nocc_ = -0.00008687
 On Iteration in Bisection 8
 a: -0.00009  b:-0.00040

 -0.21870 = (-0.22516 + -0.21224)/2.0
 sum -  nocc_ = 0.00006535
 On Iteration in Bisection 9
 a: 0.00007  b:-0.00009

 -0.22193 = (-0.22516 + -0.21870)/2.0
 sum -  nocc_ = -0.00001075
 On Iteration in Bisection 10
 a: -0.00001  b:-0.00009

 -0.22031 = (-0.22193 + -0.21870)/2.0
 sum -  nocc_ = 0.00002729
 On Iteration in Bisection 11
 a: 0.00003  b:-0.00001

 -0.22112 = (-0.22193 + -0.22031)/2.0
 sum -  nocc_ = 0.00000827
 On Iteration in Bisection 12
 a: 0.00001  b:-0.00001

 -0.22152 = (-0.22193 + -0.22112)/2.0
 sum -  nocc_ = -0.00000124
 On Iteration in Bisection 13
 a: -0.00000  b:-0.00001

 -0.22132 = (-0.22152 + -0.22112)/2.0
 sum -  nocc_ = 0.00000352
 On Iteration in Bisection 14
 a: 0.00000  b:-0.00000

 -0.22142 = (-0.22152 + -0.22132)/2.0
 sum -  nocc_ = 0.00000114
 On Iteration in Bisection 15
 a: 0.00000  b:-0.00000

 -0.22147 = (-0.22152 + -0.22142)/2.0
 sum -  nocc_ = -0.00000005
 On Iteration in Bisection 16
 a: -0.00000  b:-0.00000

 -0.22145 = (-0.22147 + -0.22142)/2.0
 sum -  nocc_ = 0.00000055
 On Iteration in Bisection 17
 a: 0.00000  b:-0.00000

 -0.22146 = (-0.22147 + -0.22145)/2.0
 sum -  nocc_ = 0.00000025
 On Iteration in Bisection 18
 a: 0.00000  b:-0.00000

 -0.22147 = (-0.22147 + -0.22146)/2.0
 sum -  nocc_ = 0.00000010
 On Iteration in Bisection 19
 a: 0.00000  b:-0.00000

 -0.22147 = (-0.22147 + -0.22147)/2.0
 sum -  nocc_ = 0.00000003
 On Iteration in Bisection 20
 a: 0.00000  b:-0.00000

 -0.22147 = (-0.22147 + -0.22147)/2.0
 sum -  nocc_ = -0.00000001
 On Iteration in Bisection 21
 a: -0.00000  b:-0.00000

 -0.22147 = (-0.22147 + -0.22147)/2.0
 sum -  nocc_ = 0.00000001
 ef = -0.22147 sum = 1.00000 

 Iter: 13  T:    20000.000  val:-0.221471  sumni 0.00000
 ne = 1.0000

 iter:14  failiter:14  energy:     -2.105774394659  total:     -1.047419977479  error:      0.000000000030
 In Bisection function HOMO = -0.677  LUMO =  5.939

 2.63076 = (-0.67745 + 5.93898)/2.0
 sum -  nocc_ = 7.99721542
 On Iteration in Bisection 0
 a: 7.99722  b:-0.50000

 0.97665 = (-0.67745 + 2.63076)/2.0
 sum -  nocc_ = 2.05325095
 On Iteration in Bisection 1
 a: 2.05325  b:-0.50000

 0.14960 = (-0.67745 + 0.97665)/2.0
 sum -  nocc_ = 0.21219087
 On Iteration in Bisection 2
 a: 0.21219  b:-0.50000

 -0.26393 = (-0.67745 + 0.14960)/2.0
 sum -  nocc_ = -0.00107586
 On Iteration in Bisection 3
 a: -0.00108  b:-0.50000

 -0.05716 = (-0.26393 + 0.14960)/2.0
 sum -  nocc_ = 0.00985167
 On Iteration in Bisection 4
 a: 0.00985  b:-0.00108

 -0.16054 = (-0.26393 + -0.05716)/2.0
 sum -  nocc_ = 0.00166531
 On Iteration in Bisection 5
 a: 0.00167  b:-0.00108

 -0.21224 = (-0.26393 + -0.16054)/2.0
 sum -  nocc_ = 0.00021824
 On Iteration in Bisection 6
 a: 0.00022  b:-0.00108

 -0.23808 = (-0.26393 + -0.21224)/2.0
 sum -  nocc_ = -0.00039558
 On Iteration in Bisection 7
 a: -0.00040  b:-0.00108

 -0.22516 = (-0.23808 + -0.21224)/2.0
 sum -  nocc_ = -0.00008687
 On Iteration in Bisection 8
 a: -0.00009  b:-0.00040

 -0.21870 = (-0.22516 + -0.21224)/2.0
 sum -  nocc_ = 0.00006535
 On Iteration in Bisection 9
 a: 0.00007  b:-0.00009

 -0.22193 = (-0.22516 + -0.21870)/2.0
 sum -  nocc_ = -0.00001075
 On Iteration in Bisection 10
 a: -0.00001  b:-0.00009

 -0.22031 = (-0.22193 + -0.21870)/2.0
 sum -  nocc_ = 0.00002729
 On Iteration in Bisection 11
 a: 0.00003  b:-0.00001

 -0.22112 = (-0.22193 + -0.22031)/2.0
 sum -  nocc_ = 0.00000827
 On Iteration in Bisection 12
 a: 0.00001  b:-0.00001

 -0.22152 = (-0.22193 + -0.22112)/2.0
 sum -  nocc_ = -0.00000124
 On Iteration in Bisection 13
 a: -0.00000  b:-0.00001

 -0.22132 = (-0.22152 + -0.22112)/2.0
 sum -  nocc_ = 0.00000352
 On Iteration in Bisection 14
 a: 0.00000  b:-0.00000

 -0.22142 = (-0.22152 + -0.22132)/2.0
 sum -  nocc_ = 0.00000114
 On Iteration in Bisection 15
 a: 0.00000  b:-0.00000

 -0.22147 = (-0.22152 + -0.22142)/2.0
 sum -  nocc_ = -0.00000005
 On Iteration in Bisection 16
 a: -0.00000  b:-0.00000

 -0.22145 = (-0.22147 + -0.22142)/2.0
 sum -  nocc_ = 0.00000055
 On Iteration in Bisection 17
 a: 0.00000  b:-0.00000

 -0.22146 = (-0.22147 + -0.22145)/2.0
 sum -  nocc_ = 0.00000025
 On Iteration in Bisection 18
 a: 0.00000  b:-0.00000

 -0.22147 = (-0.22147 + -0.22146)/2.0
 sum -  nocc_ = 0.00000010
 On Iteration in Bisection 19
 a: 0.00000  b:-0.00000

 -0.22147 = (-0.22147 + -0.22147)/2.0
 sum -  nocc_ = 0.00000003
 On Iteration in Bisection 20
 a: 0.00000  b:-0.00000

 -0.22147 = (-0.22147 + -0.22147)/2.0
 sum -  nocc_ = -0.00000001
 On Iteration in Bisection 21
 a: -0.00000  b:-0.00000

 -0.22147 = (-0.22147 + -0.22147)/2.0
 sum -  nocc_ = 0.00000001
 ef = -0.22147 sum = 1.00000 

 Iter: 14  T:    20000.000  val:-0.221471  sumni 0.00000
 ne = 1.0000

 iter:15  failiter:15  energy:     -2.105774394653  total:     -1.047419977473  error:      0.000000000006
 In Bisection function HOMO = -0.677  LUMO =  5.939

 2.63076 = (-0.67745 + 5.93898)/2.0
 sum -  nocc_ = 7.99721542
 On Iteration in Bisection 0
 a: 7.99722  b:-0.50000

 0.97665 = (-0.67745 + 2.63076)/2.0
 sum -  nocc_ = 2.05325095
 On Iteration in Bisection 1
 a: 2.05325  b:-0.50000

 0.14960 = (-0.67745 + 0.97665)/2.0
 sum -  nocc_ = 0.21219087
 On Iteration in Bisection 2
 a: 0.21219  b:-0.50000

 -0.26393 = (-0.67745 + 0.14960)/2.0
 sum -  nocc_ = -0.00107586
 On Iteration in Bisection 3
 a: -0.00108  b:-0.50000

 -0.05716 = (-0.26393 + 0.14960)/2.0
 sum -  nocc_ = 0.00985167
 On Iteration in Bisection 4
 a: 0.00985  b:-0.00108

 -0.16054 = (-0.26393 + -0.05716)/2.0
 sum -  nocc_ = 0.00166531
 On Iteration in Bisection 5
 a: 0.00167  b:-0.00108

 -0.21224 = (-0.26393 + -0.16054)/2.0
 sum -  nocc_ = 0.00021824
 On Iteration in Bisection 6
 a: 0.00022  b:-0.00108

 -0.23808 = (-0.26393 + -0.21224)/2.0
 sum -  nocc_ = -0.00039558
 On Iteration in Bisection 7
 a: -0.00040  b:-0.00108

 -0.22516 = (-0.23808 + -0.21224)/2.0
 sum -  nocc_ = -0.00008687
 On Iteration in Bisection 8
 a: -0.00009  b:-0.00040

 -0.21870 = (-0.22516 + -0.21224)/2.0
 sum -  nocc_ = 0.00006535
 On Iteration in Bisection 9
 a: 0.00007  b:-0.00009

 -0.22193 = (-0.22516 + -0.21870)/2.0
 sum -  nocc_ = -0.00001075
 On Iteration in Bisection 10
 a: -0.00001  b:-0.00009

 -0.22031 = (-0.22193 + -0.21870)/2.0
 sum -  nocc_ = 0.00002729
 On Iteration in Bisection 11
 a: 0.00003  b:-0.00001

 -0.22112 = (-0.22193 + -0.22031)/2.0
 sum -  nocc_ = 0.00000827
 On Iteration in Bisection 12
 a: 0.00001  b:-0.00001

 -0.22152 = (-0.22193 + -0.22112)/2.0
 sum -  nocc_ = -0.00000124
 On Iteration in Bisection 13
 a: -0.00000  b:-0.00001

 -0.22132 = (-0.22152 + -0.22112)/2.0
 sum -  nocc_ = 0.00000352
 On Iteration in Bisection 14
 a: 0.00000  b:-0.00000

 -0.22142 = (-0.22152 + -0.22132)/2.0
 sum -  nocc_ = 0.00000114
 On Iteration in Bisection 15
 a: 0.00000  b:-0.00000

 -0.22147 = (-0.22152 + -0.22142)/2.0
 sum -  nocc_ = -0.00000005
 On Iteration in Bisection 16
 a: -0.00000  b:-0.00000

 -0.22145 = (-0.22147 + -0.22142)/2.0
 sum -  nocc_ = 0.00000055
 On Iteration in Bisection 17
 a: 0.00000  b:-0.00000

 -0.22146 = (-0.22147 + -0.22145)/2.0
 sum -  nocc_ = 0.00000025
 On Iteration in Bisection 18
 a: 0.00000  b:-0.00000

 -0.22147 = (-0.22147 + -0.22146)/2.0
 sum -  nocc_ = 0.00000010
 On Iteration in Bisection 19
 a: 0.00000  b:-0.00000

 -0.22147 = (-0.22147 + -0.22147)/2.0
 sum -  nocc_ = 0.00000003
 On Iteration in Bisection 20
 a: 0.00000  b:-0.00000

 -0.22147 = (-0.22147 + -0.22147)/2.0
 sum -  nocc_ = -0.00000001
 On Iteration in Bisection 21
 a: -0.00000  b:-0.00000

 -0.22147 = (-0.22147 + -0.22147)/2.0
 sum -  nocc_ = 0.00000001
 ef = -0.22147 sum = 1.00000 

 Iter: 15  T:    20000.000  val:-0.221471  sumni 0.00000
 ne = 1.0000

 iter:16  failiter:16  energy:     -2.105774394651  total:     -1.047419977471  error:      0.000000000001
 In Bisection function HOMO = -0.677  LUMO =  5.939

 2.63076 = (-0.67745 + 5.93898)/2.0
 sum -  nocc_ = 7.99721542
 On Iteration in Bisection 0
 a: 7.99722  b:-0.50000

 0.97665 = (-0.67745 + 2.63076)/2.0
 sum -  nocc_ = 2.05325095
 On Iteration in Bisection 1
 a: 2.05325  b:-0.50000

 0.14960 = (-0.67745 + 0.97665)/2.0
 sum -  nocc_ = 0.21219087
 On Iteration in Bisection 2
 a: 0.21219  b:-0.50000

 -0.26393 = (-0.67745 + 0.14960)/2.0
 sum -  nocc_ = -0.00107586
 On Iteration in Bisection 3
 a: -0.00108  b:-0.50000

 -0.05716 = (-0.26393 + 0.14960)/2.0
 sum -  nocc_ = 0.00985167
 On Iteration in Bisection 4
 a: 0.00985  b:-0.00108

 -0.16054 = (-0.26393 + -0.05716)/2.0
 sum -  nocc_ = 0.00166531
 On Iteration in Bisection 5
 a: 0.00167  b:-0.00108

 -0.21224 = (-0.26393 + -0.16054)/2.0
 sum -  nocc_ = 0.00021824
 On Iteration in Bisection 6
 a: 0.00022  b:-0.00108

 -0.23808 = (-0.26393 + -0.21224)/2.0
 sum -  nocc_ = -0.00039558
 On Iteration in Bisection 7
 a: -0.00040  b:-0.00108

 -0.22516 = (-0.23808 + -0.21224)/2.0
 sum -  nocc_ = -0.00008687
 On Iteration in Bisection 8
 a: -0.00009  b:-0.00040

 -0.21870 = (-0.22516 + -0.21224)/2.0
 sum -  nocc_ = 0.00006535
 On Iteration in Bisection 9
 a: 0.00007  b:-0.00009

 -0.22193 = (-0.22516 + -0.21870)/2.0
 sum -  nocc_ = -0.00001075
 On Iteration in Bisection 10
 a: -0.00001  b:-0.00009

 -0.22031 = (-0.22193 + -0.21870)/2.0
 sum -  nocc_ = 0.00002729
 On Iteration in Bisection 11
 a: 0.00003  b:-0.00001

 -0.22112 = (-0.22193 + -0.22031)/2.0
 sum -  nocc_ = 0.00000827
 On Iteration in Bisection 12
 a: 0.00001  b:-0.00001

 -0.22152 = (-0.22193 + -0.22112)/2.0
 sum -  nocc_ = -0.00000124
 On Iteration in Bisection 13
 a: -0.00000  b:-0.00001

 -0.22132 = (-0.22152 + -0.22112)/2.0
 sum -  nocc_ = 0.00000352
 On Iteration in Bisection 14
 a: 0.00000  b:-0.00000

 -0.22142 = (-0.22152 + -0.22132)/2.0
 sum -  nocc_ = 0.00000114
 On Iteration in Bisection 15
 a: 0.00000  b:-0.00000

 -0.22147 = (-0.22152 + -0.22142)/2.0
 sum -  nocc_ = -0.00000005
 On Iteration in Bisection 16
 a: -0.00000  b:-0.00000

 -0.22145 = (-0.22147 + -0.22142)/2.0
 sum -  nocc_ = 0.00000055
 On Iteration in Bisection 17
 a: 0.00000  b:-0.00000

 -0.22146 = (-0.22147 + -0.22145)/2.0
 sum -  nocc_ = 0.00000025
 On Iteration in Bisection 18
 a: 0.00000  b:-0.00000

 -0.22147 = (-0.22147 + -0.22146)/2.0
 sum -  nocc_ = 0.00000010
 On Iteration in Bisection 19
 a: 0.00000  b:-0.00000

 -0.22147 = (-0.22147 + -0.22147)/2.0
 sum -  nocc_ = 0.00000003
 On Iteration in Bisection 20
 a: 0.00000  b:-0.00000

 -0.22147 = (-0.22147 + -0.22147)/2.0
 sum -  nocc_ = -0.00000001
 On Iteration in Bisection 21
 a: -0.00000  b:-0.00000

 -0.22147 = (-0.22147 + -0.22147)/2.0
 sum -  nocc_ = 0.00000001
 ef = -0.22147 sum = 1.00000 

 Iter: 16  T:    20000.000  val:-0.221471  sumni 0.00000
 ne = 1.0000

 iter:17  failiter:17  energy:     -2.105774394651  total:     -1.047419977471  error:      0.000000000000
 FTHFEnergy =    -1.047420
 FD_dis[0] = 0.99925383 with -0.677453 eig value
 FD_dis[1] = 0.00070710 with 0.237920 eig value
 FD_dis[2] = 0.00003908 with 0.421349 eig value
 FD_dis[3] = 0.00000000 with 1.168436 eig value
 FD_dis[4] = 0.00000000 with 1.332385 eig value
 FD_dis[5] = 0.00000000 with 1.332385 eig value
 FD_dis[6] = 0.00000000 with 2.146171 eig value
 FD_dis[7] = 0.00000000 with 2.202461 eig value
 FD_dis[8] = 0.00000000 with 2.202461 eig value
 FD_dis[9] = 0.00000000 with 5.938976 eig value
*** PSI4 exiting successfully. Buy a developer a beer!
