    -----------------------------------------------------------------------
          PSI4: An Open-Source Ab Initio Electronic Structure Package
                              PSI 4.0 Driver

               Git: Rev {master} 556e8139d3cfa1f96ccffe2cdf22cc56a185d2b2

    J. M. Turney, A. C. Simmonett, R. M. Parrish, E. G. Hohenstein,
    F. A. Evangelista, J. T. Fermann, B. J. Mintz, L. A. Burns, J. J. Wilke,
    M. L. Abrams, N. J. Russ, M. L. Leininger, C. L. Janssen, E. T. Seidl,
    W. D. Allen, H. F. Schaefer, R. A. King, E. F. Valeev, C. D. Sherrill,
    and T. D. Crawford, WIREs Comput. Mol. Sci. 2, 556-565 (2012)
    (doi: 10.1002/wcms.93)

                         Additional Contributions by
    A. E. DePrince, M. Saitow, U. Bozkaya, A. Yu. Sokolov
    -----------------------------------------------------------------------

    Process ID:  14571
    PSI4DATADIR: /Users/kevinhannon/Programs/psi4cmake/psi4/lib
    Memory level set to 256.000 MB

  ==> Input File <==

--------------------------------------------------------------------------

# PYTHONPATH must include directory above plugin directory.
#     Define either externally or here, then import plugin.
sys.path.insert(0, '/Users/kevinhannon/Programs/Quantum_Programs/Quantum-Programs/GS/')
import scf

molecule {
0 1
H
H 1 2.00000
symmetry c1
units angstrom
}


set {
  basis cc-pvdz
  reference rhf
  scf_type  pk
}

set scf {
  DO_FTHF true
  MAX_ITER 130
  MAX_TEMP 20000
  TEMP_INCREMENT 0
  bisect  true
  bisect_iter  40
}
energy('rhf')
energy('scf')


--------------------------------------------------------------------------

*** tstart() called on Kevins-MacBook-Pro.local
*** at Sun Apr 12 15:46:03 2015

/Users/kevinhannon/Programs/Quantum_Programs/Quantum-Programs/GS/scf/scf.so loaded.

*** tstart() called on Kevins-MacBook-Pro.local
*** at Sun Apr 12 15:46:03 2015


         ---------------------------------------------------------
                                   SCF
            by Justin Turney, Rob Parrish, and Andy Simmonett
                              RHF Reference
                        1 Threads,    256 MiB Core
         ---------------------------------------------------------

  ==> Geometry <==

    Molecular point group: c1
    Full point group: D_inf_h

    Geometry (in Angstrom), charge = 0, multiplicity = 1:

       Center              X                  Y                   Z       
    ------------   -----------------  -----------------  -----------------
           H          0.000000000000     0.000000000000    -1.000000000000
           H          0.000000000000     0.000000000000     1.000000000000

  Running in c1 symmetry.

  Rotational constants: A = ************  B =      8.36337  C =      8.36337 [cm^-1]
  Rotational constants: A = ************  B = 250727.55137  C = 250727.55137 [MHz]
  Nuclear repulsion =    0.264588604295000

  Charge       = 0
  Multiplicity = 1
  Electrons    = 2
  Nalpha       = 1
  Nbeta        = 1

  ==> Algorithm <==

  SCF Algorithm Type is PK.
  DIIS enabled.
  MOM disabled.
  Fractional occupation disabled.
  Guess Type is CORE.
  Energy threshold   = 1.00e-06
  Density threshold  = 1.00e-06
  Integral threshold = 0.00e+00

  ==> Primary Basis <==

  Basis Set: CC-PVDZ
    Number of shells: 6
    Number of basis function: 10
    Number of Cartesian functions: 10
    Spherical Harmonics?: true
    Max angular momentum: 1

  ==> Pre-Iterations <==

   -------------------------------------------------------
    Irrep   Nso     Nmo     Nalpha   Nbeta   Ndocc  Nsocc
   -------------------------------------------------------
     A         10      10       0       0       0       0
   -------------------------------------------------------
    Total      10      10       1       1       1       0
   -------------------------------------------------------

  Starting with a DF guess...

 OEINTS: Overlap, kinetic, potential, dipole, and quadrupole integrals
         stored in file 35.

  ==> Integral Setup <==

  ==> DFJK: Density-Fitted J/K Matrices <==

    J tasked:                  Yes
    K tasked:                  Yes
    wK tasked:                  No
    OpenMP threads:              1
    Integrals threads:           1
    Memory (MB):               183
    Algorithm:                Core
    Integral Cache:           NONE
    Schwarz Cutoff:          1E-12
    Fitting Condition:       1E-12

   => Auxiliary Basis Set <=

  Basis Set: 
    Number of shells: 18
    Number of basis function: 46
    Number of Cartesian functions: 50
    Spherical Harmonics?: true
    Max angular momentum: 2

  Minimum eigenvalue in the overlap matrix is 2.1676182085E-01.
  Using Symmetric Orthogonalization.
  SCF Guess: Core (One-Electron) Hamiltonian.

  ==> Iterations <==

                           Total Energy        Delta E     RMS |[F,P]|

   @DF-RHF iter   1:    -0.90107557532991   -9.01076e-01   1.40107e-02 
   @DF-RHF iter   2:    -0.92127347920375   -2.01979e-02   2.40723e-03 DIIS
   @DF-RHF iter   3:    -0.92191754161378   -6.44062e-04   7.65867e-05 DIIS
   @DF-RHF iter   4:    -0.92191806462956   -5.23016e-07   5.48476e-07 DIIS

  DF guess converged.

  ==> Integral Setup <==

 MINTS: Wrapper to libmints.
   by Justin Turney

   Calculation information:
      Number of atoms:                   2
      Number of AO shells:               6
      Number of SO shells:               6
      Number of primitives:             10
      Number of atomic orbitals:        10
      Number of basis functions:        10

      Number of irreps:                  1
      Integral cutoff                 0.00e+00
      Number of functions per irrep: [  10 ]

 OEINTS: Overlap, kinetic, potential, dipole, and quadrupole integrals
         stored in file 35.

      Computing two-electron integrals...done
      Computed 512 non-zero two-electron integrals.
        Stored in file 33.

	Batch   1 pq = [       0,      55] index = [             0,1540]
  ==> DiskJK: Disk-Based J/K Matrices <==

    J tasked:                  Yes
    K tasked:                  Yes
    wK tasked:                  No
    Memory (MB):               183
    Schwarz Cutoff:          1E-12

   @RHF iter   5:    -0.92190859155182    9.47308e-06   3.71930e-06 DIIS
   @RHF iter   6:    -0.92190859288430   -1.33247e-09   6.13577e-07 DIIS

  ==> Post-Iterations <==

    Orbital Energies (a.u.)
    -----------------------

    Doubly Occupied:                                                      

       1A     -0.385713  

    Virtual:                                                              

       2A     -0.035850     3A      0.653204     4A      0.670205  
       5A      1.342132     6A      1.453316     7A      1.453316  
       8A      1.501581     9A      1.501581    10A      1.708233  

    Final Occupation by Irrep:
              A 
    DOCC [     1 ]

  Energy converged.

  @RHF Final Energy:    -0.92190859288430

   => Energetics <=

    Nuclear Repulsion Energy =              0.2645886042950000
    One-Electron Energy =                  -1.6015669737464118
    Two-Electron Energy =                   0.4150697765671152
    DFT Exchange-Correlation Energy =       0.0000000000000000
    Empirical Dispersion Energy =           0.0000000000000000
    PCM Polarization Energy =               0.0000000000000000
    EFP Energy =                            0.0000000000000000
    Total Energy =                         -0.9219085928842967

    Alert: EFP and PCM quantities not currently incorporated into SCF psivars.

Properties will be evaluated at   0.000000,   0.000000,   0.000000 Bohr
  ==> Properties <==


Properties computed using the SCF density matrix

  Nuclear Dipole Moment: (a.u.)
     X:     0.0000      Y:     0.0000      Z:     0.0000

  Electronic Dipole Moment: (a.u.)
     X:    -0.0000      Y:    -0.0000      Z:    -0.0000

  Dipole Moment: (a.u.)
     X:    -0.0000      Y:    -0.0000      Z:    -0.0000     Total:     0.0000

  Dipole Moment: (Debye)
     X:    -0.0000      Y:    -0.0000      Z:    -0.0000     Total:     0.0000


  Saving occupied orbitals to File 180.

*** tstop() called on Kevins-MacBook-Pro.local at Sun Apr 12 15:46:03 2015
Module time:
	user time   =       0.22 seconds =       0.00 minutes
	system time =       0.02 seconds =       0.00 minutes
	total time  =          0 seconds =       0.00 minutes
Total time:
	user time   =       0.23 seconds =       0.00 minutes
	system time =       0.02 seconds =       0.00 minutes
	total time  =          0 seconds =       0.00 minutes

*** tstart() called on Kevins-MacBook-Pro.local
*** at Sun Apr 12 15:46:03 2015


         ---------------------------------------------------------
                                   SCF
            by Justin Turney, Rob Parrish, and Andy Simmonett
                              RHF Reference
                        1 Threads,    256 MiB Core
         ---------------------------------------------------------

  ==> Geometry <==

    Molecular point group: c1
    Full point group: D_inf_h

    Geometry (in Angstrom), charge = 0, multiplicity = 1:

       Center              X                  Y                   Z       
    ------------   -----------------  -----------------  -----------------
           H          0.000000000000     0.000000000000    -1.000000000000
           H          0.000000000000     0.000000000000     1.000000000000

  Running in c1 symmetry.

  Rotational constants: A = ************  B =      8.36337  C =      8.36337 [cm^-1]
  Rotational constants: A = ************  B = 250727.55137  C = 250727.55137 [MHz]
  Nuclear repulsion =    0.264588604295000

  Charge       = 0
  Multiplicity = 1
  Electrons    = 2
  Nalpha       = 1
  Nbeta        = 1

  ==> Algorithm <==

  SCF Algorithm Type is PK.
  DIIS enabled.
  MOM disabled.
  Fractional occupation disabled.
  Guess Type is CORE.
  Energy threshold   = 1.00e-08
  Density threshold  = 1.00e-08
  Integral threshold = 0.00e+00

  ==> Primary Basis <==

  Basis Set: CC-PVDZ
    Number of shells: 6
    Number of basis function: 10
    Number of Cartesian functions: 10
    Spherical Harmonics?: true
    Max angular momentum: 1

  ==> Pre-Iterations <==

   -------------------------------------------------------
    Irrep   Nso     Nmo     Nalpha   Nbeta   Ndocc  Nsocc
   -------------------------------------------------------
     A         10      10       0       0       0       0
   -------------------------------------------------------
    Total      10      10       1       1       1       0
   -------------------------------------------------------

  Starting with a DF guess...

 OEINTS: Overlap, kinetic, potential, dipole, and quadrupole integrals
         stored in file 35.

  ==> Integral Setup <==

  ==> DFJK: Density-Fitted J/K Matrices <==

    J tasked:                  Yes
    K tasked:                  Yes
    wK tasked:                  No
    OpenMP threads:              1
    Integrals threads:           1
    Memory (MB):               183
    Algorithm:                Core
    Integral Cache:           NONE
    Schwarz Cutoff:          1E-12
    Fitting Condition:       1E-12

   => Auxiliary Basis Set <=

  Basis Set: 
    Number of shells: 18
    Number of basis function: 46
    Number of Cartesian functions: 50
    Spherical Harmonics?: true
    Max angular momentum: 2

  Minimum eigenvalue in the overlap matrix is 2.1676182085E-01.
  Using Symmetric Orthogonalization.
  SCF Guess: Core (One-Electron) Hamiltonian.

  ==> Iterations <==

                           Total Energy        Delta E     RMS |[F,P]|

   @DF-RHF iter   1:    -0.90107557532991   -9.01076e-01   1.40107e-02 
   @DF-RHF iter   2:    -0.92127347920375   -2.01979e-02   2.40723e-03 DIIS
   @DF-RHF iter   3:    -0.92191754161378   -6.44062e-04   7.65867e-05 DIIS
   @DF-RHF iter   4:    -0.92191806462956   -5.23016e-07   5.48476e-07 DIIS
   @DF-RHF iter   5:    -0.92191806465027   -2.07079e-11   6.80784e-11 DIIS

  DF guess converged.

  ==> Integral Setup <==

 MINTS: Wrapper to libmints.
   by Justin Turney

   Calculation information:
      Number of atoms:                   2
      Number of AO shells:               6
      Number of SO shells:               6
      Number of primitives:             10
      Number of atomic orbitals:        10
      Number of basis functions:        10

      Number of irreps:                  1
      Integral cutoff                 0.00e+00
      Number of functions per irrep: [  10 ]

 OEINTS: Overlap, kinetic, potential, dipole, and quadrupole integrals
         stored in file 35.

      Computing two-electron integrals...done
      Computed 512 non-zero two-electron integrals.
        Stored in file 33.

	Batch   1 pq = [       0,      55] index = [             0,1540]
  ==> DiskJK: Disk-Based J/K Matrices <==

    J tasked:                  Yes
    K tasked:                  Yes
    wK tasked:                  No
    Memory (MB):               183
    Schwarz Cutoff:          1E-12

   @RHF iter   6:    -0.92190859155187    9.47310e-06   3.71923e-06 DIIS
   @RHF iter   7:    -0.92190859288430   -1.33242e-09   6.13565e-07 DIIS
   @RHF iter   8:    -0.92190859292459   -4.02953e-11   2.17636e-08 DIIS
   @RHF iter   9:    -0.92190859292464   -4.44089e-14   4.27768e-14 DIIS

  ==> Post-Iterations <==

    Orbital Energies (a.u.)
    -----------------------

    Doubly Occupied:                                                      

       1A     -0.385713  

    Virtual:                                                              

       2A     -0.035850     3A      0.653204     4A      0.670205  
       5A      1.342132     6A      1.453316     7A      1.453316  
       8A      1.501581     9A      1.501581    10A      1.708234  

    Final Occupation by Irrep:
              A 
    DOCC [     1 ]

  Energy converged.

  @RHF Final Energy:    -0.92190859292464

   => Energetics <=

    Nuclear Repulsion Energy =              0.2645886042950000
    One-Electron Energy =                  -1.6015686072048307
    Two-Electron Energy =                   0.4150714099851924
    DFT Exchange-Correlation Energy =       0.0000000000000000
    Empirical Dispersion Energy =           0.0000000000000000
    PCM Polarization Energy =               0.0000000000000000
    EFP Energy =                            0.0000000000000000
    Total Energy =                         -0.9219085929246382

    Alert: EFP and PCM quantities not currently incorporated into SCF psivars.

Properties will be evaluated at   0.000000,   0.000000,   0.000000 Bohr
  ==> Properties <==


Properties computed using the SCF density matrix

  Nuclear Dipole Moment: (a.u.)
     X:     0.0000      Y:     0.0000      Z:     0.0000

  Electronic Dipole Moment: (a.u.)
     X:    -0.0000      Y:    -0.0000      Z:    -0.0000

  Dipole Moment: (a.u.)
     X:    -0.0000      Y:    -0.0000      Z:    -0.0000     Total:     0.0000

  Dipole Moment: (Debye)
     X:    -0.0000      Y:    -0.0000      Z:    -0.0000     Total:     0.0000


  Saving occupied orbitals to File 180.

*** tstop() called on Kevins-MacBook-Pro.local at Sun Apr 12 15:46:03 2015
Module time:
	user time   =       0.19 seconds =       0.00 minutes
	system time =       0.01 seconds =       0.00 minutes
	total time  =          0 seconds =       0.00 minutes
Total time:
	user time   =       0.43 seconds =       0.01 minutes
	system time =       0.03 seconds =       0.00 minutes
	total time  =          0 seconds =       0.00 minutes
Reading options from the SCF block
Calling plugin scf.so.
    Molecular point group: c1
    Full point group: D_inf_h

    Geometry (in Angstrom), charge = 0, multiplicity = 1:

       Center              X                  Y                   Z       
    ------------   -----------------  -----------------  -----------------
           H          0.000000000000     0.000000000000    -1.000000000000
           H          0.000000000000     0.000000000000     1.000000000000


    Nuclear repulsion energy:       0.26458860

  ## Overlap (Symmetry 0) ##
  Irrep: 1 Size: 10 x 10

                 1                   2                   3                   4                   5

    1     1.00000000000000     0.68486025149275     0.00000000000000     0.00000000000000     0.00000000000000
    2     0.68486025149275     1.00000000000000     0.00000000000000     0.00000000000000     0.00000000000000
    3     0.00000000000000     0.00000000000000     1.00000000000000     0.00000000000000     0.00000000000000
    4     0.00000000000000     0.00000000000000     0.00000000000000     1.00000000000000     0.00000000000000
    5     0.00000000000000     0.00000000000000     0.00000000000000     0.00000000000000     1.00000000000000
    6     0.02915955126751     0.16965537816658     0.03745231364143     0.00000000000000     0.00000000000000
    7     0.16965537816658     0.41839060327982     0.12237772805489     0.00000000000000     0.00000000000000
    8    -0.03745231364143    -0.12237772805489    -0.05216976205434     0.00000000000000     0.00000000000000
    9     0.00000000000000     0.00000000000000     0.00000000000000     0.00555904858854     0.00000000000000
   10     0.00000000000000     0.00000000000000     0.00000000000000     0.00000000000000     0.00555904858854

                 6                   7                   8                   9                  10

    1     0.02915955126751     0.16965537816658    -0.03745231364143     0.00000000000000     0.00000000000000
    2     0.16965537816658     0.41839060327982    -0.12237772805489     0.00000000000000     0.00000000000000
    3     0.03745231364143     0.12237772805489    -0.05216976205434     0.00000000000000     0.00000000000000
    4     0.00000000000000     0.00000000000000     0.00000000000000     0.00555904858854     0.00000000000000
    5     0.00000000000000     0.00000000000000     0.00000000000000     0.00000000000000     0.00555904858854
    6     1.00000000000000     0.68486025149275    -0.00000000000000     0.00000000000000     0.00000000000000
    7     0.68486025149275     1.00000000000000    -0.00000000000000     0.00000000000000     0.00000000000000
    8    -0.00000000000000    -0.00000000000000     1.00000000000000     0.00000000000000     0.00000000000000
    9     0.00000000000000     0.00000000000000     0.00000000000000     1.00000000000000     0.00000000000000
   10     0.00000000000000     0.00000000000000     0.00000000000000     0.00000000000000     1.00000000000000



  ## Kinetic (Symmetry 0) ##
  Irrep: 1 Size: 10 x 10

                 1                   2                   3                   4                   5

    1     0.96945722711242     0.20123413106538     0.00000000000000     0.00000000000000     0.00000000000000
    2     0.20123413106538     0.18300000000000     0.00000000000000     0.00000000000000     0.00000000000000
    3     0.00000000000000     0.00000000000000     1.81750000000000     0.00000000000000     0.00000000000000
    4     0.00000000000000     0.00000000000000     0.00000000000000     1.81750000000000     0.00000000000000
    5     0.00000000000000     0.00000000000000     0.00000000000000     0.00000000000000     1.81750000000000
    6    -0.02463484522439     0.00342069962389    -0.03197742919620     0.00000000000000     0.00000000000000
    7     0.00342069962389     0.03208911219552     0.02576723108916     0.00000000000000     0.00000000000000
    8     0.03197742919620    -0.02576723108916     0.06014421292994     0.00000000000000     0.00000000000000
    9     0.00000000000000     0.00000000000000     0.00000000000000    -0.01088085185901     0.00000000000000
   10     0.00000000000000     0.00000000000000     0.00000000000000     0.00000000000000    -0.01088085185901

                 6                   7                   8                   9                  10

    1    -0.02463484522439     0.00342069962389     0.03197742919620     0.00000000000000     0.00000000000000
    2     0.00342069962389     0.03208911219552    -0.02576723108916     0.00000000000000     0.00000000000000
    3    -0.03197742919620     0.02576723108916     0.06014421292994     0.00000000000000     0.00000000000000
    4     0.00000000000000     0.00000000000000     0.00000000000000    -0.01088085185901     0.00000000000000
    5     0.00000000000000     0.00000000000000     0.00000000000000     0.00000000000000    -0.01088085185901
    6     0.96945722711242     0.20123413106538    -0.00000000000000     0.00000000000000     0.00000000000000
    7     0.20123413106538     0.18300000000000    -0.00000000000000     0.00000000000000     0.00000000000000
    8    -0.00000000000000    -0.00000000000000     1.81750000000000     0.00000000000000     0.00000000000000
    9     0.00000000000000     0.00000000000000     0.00000000000000     1.81750000000000     0.00000000000000
   10     0.00000000000000     0.00000000000000     0.00000000000000     0.00000000000000     1.81750000000000



  ## Potential (Symmetry 0) ##
  Irrep: 1 Size: 10 x 10

                 1                   2                   3                   4                   5

    1    -1.64245030749749    -0.83090421435570    -0.04404321642156     0.00000000000000     0.00000000000000
    2    -0.83090421435570    -0.81977456812285    -0.04131391263496     0.00000000000000     0.00000000000000
    3    -0.04404321642156    -0.04131391263496    -1.18440886444608     0.00000000000000     0.00000000000000
    4     0.00000000000000     0.00000000000000     0.00000000000000    -1.16529976471588     0.00000000000000
    5     0.00000000000000     0.00000000000000     0.00000000000000     0.00000000000000    -1.16529976471588
    6    -0.03135945270671    -0.19788545769574    -0.03911234377032     0.00000000000000     0.00000000000000
    7    -0.19788545769574    -0.36008962031495    -0.13126998009967     0.00000000000000     0.00000000000000
    8     0.03911234377032     0.13126998009967     0.05411256650321     0.00000000000000     0.00000000000000
    9     0.00000000000000     0.00000000000000     0.00000000000000    -0.00531823400942     0.00000000000000
   10     0.00000000000000     0.00000000000000     0.00000000000000     0.00000000000000    -0.00531823400942

                 6                   7                   8                   9                  10

    1    -0.03135945270671    -0.19788545769574     0.03911234377032     0.00000000000000     0.00000000000000
    2    -0.19788545769574    -0.36008962031495     0.13126998009967     0.00000000000000     0.00000000000000
    3    -0.03911234377032    -0.13126998009967     0.05411256650321     0.00000000000000     0.00000000000000
    4     0.00000000000000     0.00000000000000     0.00000000000000    -0.00531823400942     0.00000000000000
    5     0.00000000000000     0.00000000000000     0.00000000000000     0.00000000000000    -0.00531823400942
    6    -1.64245030749749    -0.83090421435570     0.04404321642156     0.00000000000000     0.00000000000000
    7    -0.83090421435570    -0.81977456812285     0.04131391263496     0.00000000000000     0.00000000000000
    8     0.04404321642156     0.04131391263496    -1.18440886444608     0.00000000000000     0.00000000000000
    9     0.00000000000000     0.00000000000000     0.00000000000000    -1.16529976471588     0.00000000000000
   10     0.00000000000000     0.00000000000000     0.00000000000000     0.00000000000000    -1.16529976471588



  ## One Electron Ints (Symmetry 0) ##
  Irrep: 1 Size: 10 x 10

                 1                   2                   3                   4                   5

    1    -0.67299308038507    -0.62967008329032    -0.04404321642156     0.00000000000000     0.00000000000000
    2    -0.62967008329032    -0.63677456812285    -0.04131391263496     0.00000000000000     0.00000000000000
    3    -0.04404321642156    -0.04131391263496     0.63309113555392     0.00000000000000     0.00000000000000
    4     0.00000000000000     0.00000000000000     0.00000000000000     0.65220023528413     0.00000000000000
    5     0.00000000000000     0.00000000000000     0.00000000000000     0.00000000000000     0.65220023528413
    6    -0.05599429793110    -0.19446475807185    -0.07108977296652     0.00000000000000     0.00000000000000
    7    -0.19446475807185    -0.32800050811943    -0.10550274901051     0.00000000000000     0.00000000000000
    8     0.07108977296652     0.10550274901051     0.11425677943315     0.00000000000000     0.00000000000000
    9     0.00000000000000     0.00000000000000     0.00000000000000    -0.01619908586843     0.00000000000000
   10     0.00000000000000     0.00000000000000     0.00000000000000     0.00000000000000    -0.01619908586843

                 6                   7                   8                   9                  10

    1    -0.05599429793110    -0.19446475807185     0.07108977296652     0.00000000000000     0.00000000000000
    2    -0.19446475807185    -0.32800050811943     0.10550274901051     0.00000000000000     0.00000000000000
    3    -0.07108977296652    -0.10550274901051     0.11425677943315     0.00000000000000     0.00000000000000
    4     0.00000000000000     0.00000000000000     0.00000000000000    -0.01619908586843     0.00000000000000
    5     0.00000000000000     0.00000000000000     0.00000000000000     0.00000000000000    -0.01619908586843
    6    -0.67299308038507    -0.62967008329032     0.04404321642156     0.00000000000000     0.00000000000000
    7    -0.62967008329032    -0.63677456812285     0.04131391263496     0.00000000000000     0.00000000000000
    8     0.04404321642156     0.04131391263496     0.63309113555392     0.00000000000000     0.00000000000000
    9     0.00000000000000     0.00000000000000     0.00000000000000     0.65220023528413     0.00000000000000
   10     0.00000000000000     0.00000000000000     0.00000000000000     0.00000000000000     0.65220023528413




	There are 0 unique integrals

  ## Fock (Symmetry 0) ##
  Irrep: 1 Size: 10 x 10

                 1                   2                   3                   4                   5

    1    -0.43602434418223    -0.36108750226005    -0.05089486440542    -0.00000000000000     0.00000000000000
    2    -0.36108750226005    -0.31942084175496     0.03599399554867     0.00000000000000     0.00000000000000
    3    -0.05089486440542     0.03599399554867     0.66383013621384     0.00000000000000     0.00000000000000
    4    -0.00000000000000     0.00000000000000     0.00000000000000     0.65231044515308     0.00000000000000
    5     0.00000000000000     0.00000000000000     0.00000000000000     0.00000000000000     0.65231044515308
    6     0.01644303024737    -0.02084933679430     0.00744159990384    -0.00000000000000     0.00000000000000
    7    -0.02084933679430    -0.10106415052489    -0.13900153065032    -0.00000000000000     0.00000000000000
    8    -0.00744159990384     0.13900153065032     0.15582420093059     0.00000000000000     0.00000000000000
    9     0.00000000000000    -0.00000000000000     0.00000000000000    -0.01982531132785     0.00000000000000
   10     0.00000000000000     0.00000000000000     0.00000000000000     0.00000000000000    -0.01982531132785

                 6                   7                   8                   9                  10

    1     0.01644303024737    -0.02084933679430    -0.00744159990384     0.00000000000000     0.00000000000000
    2    -0.02084933679430    -0.10106415052489     0.13900153065032    -0.00000000000000     0.00000000000000
    3     0.00744159990384    -0.13900153065032     0.15582420093059     0.00000000000000     0.00000000000000
    4    -0.00000000000000    -0.00000000000000     0.00000000000000    -0.01982531132785     0.00000000000000
    5     0.00000000000000     0.00000000000000     0.00000000000000     0.00000000000000    -0.01982531132785
    6    -0.43602434418223    -0.36108750226005     0.05089486440542    -0.00000000000000     0.00000000000000
    7    -0.36108750226005    -0.31942084175496    -0.03599399554867     0.00000000000000     0.00000000000000
    8     0.05089486440542    -0.03599399554867     0.66383013621384    -0.00000000000000     0.00000000000000
    9    -0.00000000000000     0.00000000000000    -0.00000000000000     0.65231044515308     0.00000000000000
   10     0.00000000000000     0.00000000000000     0.00000000000000     0.00000000000000     0.65231044515308



  ## C (Symmetry 0) ##
  Irrep: 1 Size: 10 x 10

                 1                   2                   3                   4                   5

    1    -0.95231697315219    -0.86626264251574    -0.05707005938136     0.03378299654155     0.00605416587934
    2     1.09120594608265     0.83976573373228    -0.00841270585799    -0.22864068213131    -0.09746011031444
    3     0.53213873169246    -0.47945560035404    -0.05355635969689    -0.06367711377288    -0.03930380526496
    4    -0.41123400292756     0.55645344861671    -0.14580035432055    -0.00196545843877    -0.00000000000000
    5     0.00160773465256     0.07610126340285    -0.70488828038504     0.00000000000000     0.00000000000000
    6     0.03175578826486    -0.00142637346329    -0.00354631886750    -0.38222426099012    -0.91709411117355
    7    -0.25387831894358    -0.11388565197074     0.01048319579933     0.99698160167701     0.40646456298457
    8     0.07927437174273     0.03557663524850    -0.00248240664735    -0.02424030199445    -0.71926294528488
    9     0.00114304373271    -0.00154668782849     0.00040525875790     0.70711497577215     0.00000000000000
   10    -0.06525934392819     0.13272932205865     0.69338706363929     0.00000000000000     0.00000000000000

                 6                   7                   8                   9                  10

    1    -0.33445304671724    -0.41699890177863     0.08513787773365     0.03378299654156    -0.03032031325829
    2    -0.52041066192615    -0.33207951401634    -0.06479849853798    -0.22864068213131     0.02989411723133
    3     0.49295438444704    -0.50794748290073     0.05177632513963    -0.06367711377288     0.00292932612734
    4     0.41123400292755    -0.55645344861670    -0.14580035432055     0.00196545843877    -0.00000000000000
    5     0.00124497402568     0.07684029946117     0.70104454028844     0.00000000000000     0.00000000000000
    6    -0.02285428498333    -0.04113467287959     0.00106553701480    -0.38222426099012    -0.90571440172375
    7     0.11571839173740     0.15485701724892     0.00630654202993     0.99698160167703     0.35798395899567
    8    -0.02365941754066    -0.03926900186213    -0.00219358555143    -0.02424030199445     0.70788323583509
    9    -0.00114304373271     0.00154668782849     0.00040525875790    -0.70711497577214     0.00000000000000
   10     0.06525141469385    -0.13315443013254     0.68947920901675     0.00000000000000     0.00000000000000




 In Bisection function HOMO = -0.810  LUMO =  0.859

 0.02434 = (-0.81013 + 0.85881)/2.0
 sum -  nocc_ = 2.38097844
 On Iteration in Bisection 0
 a: 2.38098  b:-0.35604

 -0.39289 = (-0.81013 + 0.02434)/2.0
 sum -  nocc_ = 0.99683466
 On Iteration in Bisection 1
 a: 0.99683  b:-0.35604

 -0.60151 = (-0.81013 + -0.39289)/2.0
 sum -  nocc_ = 0.78368690
 On Iteration in Bisection 2
 a: 0.78369  b:-0.35604

 -0.70582 = (-0.81013 + -0.60151)/2.0
 sum -  nocc_ = 0.30461719
 On Iteration in Bisection 3
 a: 0.30462  b:-0.35604

 -0.75797 = (-0.81013 + -0.70582)/2.0
 sum -  nocc_ = -0.02799466
 On Iteration in Bisection 4
 a: -0.02799  b:-0.35604

 -0.73189 = (-0.75797 + -0.70582)/2.0
 sum -  nocc_ = 0.14118516
 On Iteration in Bisection 5
 a: 0.14119  b:-0.02799

 -0.74493 = (-0.75797 + -0.73189)/2.0
 sum -  nocc_ = 0.05688167
 On Iteration in Bisection 6
 a: 0.05688  b:-0.02799

 -0.75145 = (-0.75797 + -0.74493)/2.0
 sum -  nocc_ = 0.01446156
 On Iteration in Bisection 7
 a: 0.01446  b:-0.02799

 -0.75471 = (-0.75797 + -0.75145)/2.0
 sum -  nocc_ = -0.00676871
 On Iteration in Bisection 8
 a: -0.00677  b:-0.02799

 -0.75308 = (-0.75471 + -0.75145)/2.0
 sum -  nocc_ = 0.00384672
 On Iteration in Bisection 9
 a: 0.00385  b:-0.00677

 -0.75390 = (-0.75471 + -0.75308)/2.0
 sum -  nocc_ = -0.00146103
 On Iteration in Bisection 10
 a: -0.00146  b:-0.00677

 -0.75349 = (-0.75390 + -0.75308)/2.0
 sum -  nocc_ = 0.00119285
 On Iteration in Bisection 11
 a: 0.00119  b:-0.00146

 -0.75369 = (-0.75390 + -0.75349)/2.0
 sum -  nocc_ = -0.00013409
 On Iteration in Bisection 12
 a: -0.00013  b:-0.00146

 -0.75359 = (-0.75369 + -0.75349)/2.0
 sum -  nocc_ = 0.00052938
 On Iteration in Bisection 13
 a: 0.00053  b:-0.00013

 -0.75364 = (-0.75369 + -0.75359)/2.0
 sum -  nocc_ = 0.00019765
 On Iteration in Bisection 14
 a: 0.00020  b:-0.00013

 -0.75367 = (-0.75369 + -0.75364)/2.0
 sum -  nocc_ = 0.00003178
 On Iteration in Bisection 15
 a: 0.00003  b:-0.00013

 -0.75368 = (-0.75369 + -0.75367)/2.0
 sum -  nocc_ = -0.00005115
 On Iteration in Bisection 16
 a: -0.00005  b:-0.00013

 -0.75367 = (-0.75368 + -0.75367)/2.0
 sum -  nocc_ = -0.00000969
 On Iteration in Bisection 17
 a: -0.00001  b:-0.00005

 -0.75367 = (-0.75367 + -0.75367)/2.0
 sum -  nocc_ = 0.00001105
 On Iteration in Bisection 18
 a: 0.00001  b:-0.00001

 -0.75367 = (-0.75367 + -0.75367)/2.0
 sum -  nocc_ = 0.00000068
 On Iteration in Bisection 19
 a: 0.00000  b:-0.00001

 -0.75367 = (-0.75367 + -0.75367)/2.0
 sum -  nocc_ = -0.00000450
 On Iteration in Bisection 20
 a: -0.00000  b:-0.00001

 -0.75367 = (-0.75367 + -0.75367)/2.0
 sum -  nocc_ = -0.00000191
 On Iteration in Bisection 21
 a: -0.00000  b:-0.00000

 -0.75367 = (-0.75367 + -0.75367)/2.0
 sum -  nocc_ = -0.00000062
 On Iteration in Bisection 22
 a: -0.00000  b:-0.00000

 -0.75367 = (-0.75367 + -0.75367)/2.0
 sum -  nocc_ = 0.00000003
 On Iteration in Bisection 23
 a: 0.00000  b:-0.00000

 -0.75367 = (-0.75367 + -0.75367)/2.0
 sum -  nocc_ = -0.00000029
 On Iteration in Bisection 24
 a: -0.00000  b:-0.00000

 -0.75367 = (-0.75367 + -0.75367)/2.0
 sum -  nocc_ = -0.00000013
 On Iteration in Bisection 25
 a: -0.00000  b:-0.00000

 -0.75367 = (-0.75367 + -0.75367)/2.0
 sum -  nocc_ = -0.00000005
 On Iteration in Bisection 26
 a: -0.00000  b:-0.00000

 -0.75367 = (-0.75367 + -0.75367)/2.0
 sum -  nocc_ = -0.00000001
 ef = -0.75367 sum = 1.00000 

 Iter: 0  T:    20000.000  val:-0.753672  sumni 0.00000
 ne = 1.0000

Nuc Replusion =       0.264588604295
 1st iteration =       0.643871992791
 In Bisection function HOMO = -0.267  LUMO =  1.856

 0.79440 = (-0.26733 + 1.85613)/2.0
 sum -  nocc_ = 2.53537215
 On Iteration in Bisection 0
 a: 2.53537  b:-0.49944

 0.26354 = (-0.26733 + 0.79440)/2.0
 sum -  nocc_ = 0.77257711
 On Iteration in Bisection 1
 a: 0.77258  b:-0.49944

 -0.00189 = (-0.26733 + 0.26354)/2.0
 sum -  nocc_ = 0.02082056
 On Iteration in Bisection 2
 a: 0.02082  b:-0.49944

 -0.13461 = (-0.26733 + -0.00189)/2.0
 sum -  nocc_ = -0.10500354
 On Iteration in Bisection 3
 a: -0.10500  b:-0.49944

 -0.06825 = (-0.13461 + -0.00189)/2.0
 sum -  nocc_ = -0.02854723
 On Iteration in Bisection 4
 a: -0.02855  b:-0.10500

 -0.03507 = (-0.06825 + -0.00189)/2.0
 sum -  nocc_ = -0.00346127
 On Iteration in Bisection 5
 a: -0.00346  b:-0.02855

 -0.01848 = (-0.03507 + -0.00189)/2.0
 sum -  nocc_ = 0.00842497
 On Iteration in Bisection 6
 a: 0.00842  b:-0.00346

 -0.02678 = (-0.03507 + -0.01848)/2.0
 sum -  nocc_ = 0.00246267
 On Iteration in Bisection 7
 a: 0.00246  b:-0.00346

 -0.03093 = (-0.03507 + -0.02678)/2.0
 sum -  nocc_ = -0.00049858
 On Iteration in Bisection 8
 a: -0.00050  b:-0.00346

 -0.02885 = (-0.03093 + -0.02678)/2.0
 sum -  nocc_ = 0.00098154
 On Iteration in Bisection 9
 a: 0.00098  b:-0.00050

 -0.02989 = (-0.03093 + -0.02885)/2.0
 sum -  nocc_ = 0.00024144
 On Iteration in Bisection 10
 a: 0.00024  b:-0.00050

 -0.03041 = (-0.03093 + -0.02989)/2.0
 sum -  nocc_ = -0.00012857
 On Iteration in Bisection 11
 a: -0.00013  b:-0.00050

 -0.03015 = (-0.03041 + -0.02989)/2.0
 sum -  nocc_ = 0.00005644
 On Iteration in Bisection 12
 a: 0.00006  b:-0.00013

 -0.03028 = (-0.03041 + -0.03015)/2.0
 sum -  nocc_ = -0.00003607
 On Iteration in Bisection 13
 a: -0.00004  b:-0.00013

 -0.03021 = (-0.03028 + -0.03015)/2.0
 sum -  nocc_ = 0.00001019
 On Iteration in Bisection 14
 a: 0.00001  b:-0.00004

 -0.03025 = (-0.03028 + -0.03021)/2.0
 sum -  nocc_ = -0.00001294
 On Iteration in Bisection 15
 a: -0.00001  b:-0.00004

 -0.03023 = (-0.03025 + -0.03021)/2.0
 sum -  nocc_ = -0.00000138
 On Iteration in Bisection 16
 a: -0.00000  b:-0.00001

 -0.03022 = (-0.03023 + -0.03021)/2.0
 sum -  nocc_ = 0.00000440
 On Iteration in Bisection 17
 a: 0.00000  b:-0.00000

 -0.03022 = (-0.03023 + -0.03022)/2.0
 sum -  nocc_ = 0.00000151
 On Iteration in Bisection 18
 a: 0.00000  b:-0.00000

 -0.03023 = (-0.03023 + -0.03022)/2.0
 sum -  nocc_ = 0.00000007
 On Iteration in Bisection 19
 a: 0.00000  b:-0.00000

 -0.03023 = (-0.03023 + -0.03023)/2.0
 sum -  nocc_ = -0.00000065
 On Iteration in Bisection 20
 a: -0.00000  b:-0.00000

 -0.03023 = (-0.03023 + -0.03023)/2.0
 sum -  nocc_ = -0.00000029
 On Iteration in Bisection 21
 a: -0.00000  b:-0.00000

 -0.03023 = (-0.03023 + -0.03023)/2.0
 sum -  nocc_ = -0.00000011
 On Iteration in Bisection 22
 a: -0.00000  b:-0.00000

 -0.03023 = (-0.03023 + -0.03023)/2.0
 sum -  nocc_ = -0.00000002
 On Iteration in Bisection 23
 a: -0.00000  b:-0.00000

 -0.03023 = (-0.03023 + -0.03023)/2.0
 sum -  nocc_ = 0.00000002
 On Iteration in Bisection 24
 a: 0.00000  b:-0.00000

 -0.03023 = (-0.03023 + -0.03023)/2.0
 sum -  nocc_ = 0.00000000
 ef = -0.03023 sum = 1.00000 

 Iter: 0  T:    20000.000  val:-0.030227  sumni 0.00000
 ne = 1.0000

 iter:1  failiter:1  energy:     -1.011510999619  total:     -0.746922395324  error:     -0.089602406694
 In Bisection function HOMO = -0.294  LUMO =  1.896

 0.80105 = (-0.29363 + 1.89574)/2.0
 sum -  nocc_ = 2.21073725
 On Iteration in Bisection 0
 a: 2.21074  b:-0.44238

 0.25371 = (-0.29363 + 0.80105)/2.0
 sum -  nocc_ = 1.04466664
 On Iteration in Bisection 1
 a: 1.04467  b:-0.44238

 -0.01996 = (-0.29363 + 0.25371)/2.0
 sum -  nocc_ = 0.80904584
 On Iteration in Bisection 2
 a: 0.80905  b:-0.44238

 -0.15679 = (-0.29363 + -0.01996)/2.0
 sum -  nocc_ = 0.24331083
 On Iteration in Bisection 3
 a: 0.24331  b:-0.44238

 -0.22521 = (-0.29363 + -0.15679)/2.0
 sum -  nocc_ = -0.10083042
 On Iteration in Bisection 4
 a: -0.10083  b:-0.44238

 -0.19100 = (-0.22521 + -0.15679)/2.0
 sum -  nocc_ = 0.07098775
 On Iteration in Bisection 5
 a: 0.07099  b:-0.10083

 -0.20811 = (-0.22521 + -0.19100)/2.0
 sum -  nocc_ = -0.01489989
 On Iteration in Bisection 6
 a: -0.01490  b:-0.10083

 -0.19955 = (-0.20811 + -0.19100)/2.0
 sum -  nocc_ = 0.02803226
 On Iteration in Bisection 7
 a: 0.02803  b:-0.01490

 -0.20383 = (-0.20811 + -0.19955)/2.0
 sum -  nocc_ = 0.00656542
 On Iteration in Bisection 8
 a: 0.00657  b:-0.01490

 -0.20597 = (-0.20811 + -0.20383)/2.0
 sum -  nocc_ = -0.00416715
 On Iteration in Bisection 9
 a: -0.00417  b:-0.01490

 -0.20490 = (-0.20597 + -0.20383)/2.0
 sum -  nocc_ = 0.00119912
 On Iteration in Bisection 10
 a: 0.00120  b:-0.00417

 -0.20543 = (-0.20597 + -0.20490)/2.0
 sum -  nocc_ = -0.00148401
 On Iteration in Bisection 11
 a: -0.00148  b:-0.00417

 -0.20517 = (-0.20543 + -0.20490)/2.0
 sum -  nocc_ = -0.00014245
 On Iteration in Bisection 12
 a: -0.00014  b:-0.00148

 -0.20503 = (-0.20517 + -0.20490)/2.0
 sum -  nocc_ = 0.00052834
 On Iteration in Bisection 13
 a: 0.00053  b:-0.00014

 -0.20510 = (-0.20517 + -0.20503)/2.0
 sum -  nocc_ = 0.00019295
 On Iteration in Bisection 14
 a: 0.00019  b:-0.00014

 -0.20513 = (-0.20517 + -0.20510)/2.0
 sum -  nocc_ = 0.00002525
 On Iteration in Bisection 15
 a: 0.00003  b:-0.00014

 -0.20515 = (-0.20517 + -0.20513)/2.0
 sum -  nocc_ = -0.00005860
 On Iteration in Bisection 16
 a: -0.00006  b:-0.00014

 -0.20514 = (-0.20515 + -0.20513)/2.0
 sum -  nocc_ = -0.00001667
 On Iteration in Bisection 17
 a: -0.00002  b:-0.00006

 -0.20514 = (-0.20514 + -0.20513)/2.0
 sum -  nocc_ = 0.00000429
 On Iteration in Bisection 18
 a: 0.00000  b:-0.00002

 -0.20514 = (-0.20514 + -0.20514)/2.0
 sum -  nocc_ = -0.00000619
 On Iteration in Bisection 19
 a: -0.00001  b:-0.00002

 -0.20514 = (-0.20514 + -0.20514)/2.0
 sum -  nocc_ = -0.00000095
 On Iteration in Bisection 20
 a: -0.00000  b:-0.00001

 -0.20514 = (-0.20514 + -0.20514)/2.0
 sum -  nocc_ = 0.00000167
 On Iteration in Bisection 21
 a: 0.00000  b:-0.00000

 -0.20514 = (-0.20514 + -0.20514)/2.0
 sum -  nocc_ = 0.00000036
 On Iteration in Bisection 22
 a: 0.00000  b:-0.00000

 -0.20514 = (-0.20514 + -0.20514)/2.0
 sum -  nocc_ = -0.00000030
 On Iteration in Bisection 23
 a: -0.00000  b:-0.00000

 -0.20514 = (-0.20514 + -0.20514)/2.0
 sum -  nocc_ = 0.00000003
 On Iteration in Bisection 24
 a: 0.00000  b:-0.00000

 -0.20514 = (-0.20514 + -0.20514)/2.0
 sum -  nocc_ = -0.00000013
 On Iteration in Bisection 25
 a: -0.00000  b:-0.00000

 -0.20514 = (-0.20514 + -0.20514)/2.0
 sum -  nocc_ = -0.00000005
 On Iteration in Bisection 26
 a: -0.00000  b:-0.00000

 -0.20514 = (-0.20514 + -0.20514)/2.0
 sum -  nocc_ = -0.00000001
 On Iteration in Bisection 27
 a: -0.00000  b:-0.00000

 -0.20514 = (-0.20514 + -0.20514)/2.0
 sum -  nocc_ = 0.00000001
 ef = -0.20514 sum = 1.00000 

 Iter: 1  T:    20000.000  val:-0.205138  sumni 0.00000
 ne = 1.0000

 iter:2  failiter:2  energy:     -1.029918938220  total:     -0.765330333925  error:     -0.018407938601
 In Bisection function HOMO = -0.326  LUMO =  1.743

 0.70871 = (-0.32580 + 1.74322)/2.0
 sum -  nocc_ = 2.24820026
 On Iteration in Bisection 0
 a: 2.24820  b:-0.47663

 0.19145 = (-0.32580 + 0.70871)/2.0
 sum -  nocc_ = 0.99040304
 On Iteration in Bisection 1
 a: 0.99040  b:-0.47663

 -0.06718 = (-0.32580 + 0.19145)/2.0
 sum -  nocc_ = 0.57037052
 On Iteration in Bisection 2
 a: 0.57037  b:-0.47663

 -0.19649 = (-0.32580 + -0.06718)/2.0
 sum -  nocc_ = 0.04081166
 On Iteration in Bisection 3
 a: 0.04081  b:-0.47663

 -0.26115 = (-0.32580 + -0.19649)/2.0
 sum -  nocc_ = -0.20255468
 On Iteration in Bisection 4
 a: -0.20255  b:-0.47663

 -0.22882 = (-0.26115 + -0.19649)/2.0
 sum -  nocc_ = -0.07814124
 On Iteration in Bisection 5
 a: -0.07814  b:-0.20255

 -0.21265 = (-0.22882 + -0.19649)/2.0
 sum -  nocc_ = -0.01848538
 On Iteration in Bisection 6
 a: -0.01849  b:-0.07814

 -0.20457 = (-0.21265 + -0.19649)/2.0
 sum -  nocc_ = 0.01113570
 On Iteration in Bisection 7
 a: 0.01114  b:-0.01849

 -0.20861 = (-0.21265 + -0.20457)/2.0
 sum -  nocc_ = -0.00367257
 On Iteration in Bisection 8
 a: -0.00367  b:-0.01849

 -0.20659 = (-0.20861 + -0.20457)/2.0
 sum -  nocc_ = 0.00373099
 On Iteration in Bisection 9
 a: 0.00373  b:-0.00367

 -0.20760 = (-0.20861 + -0.20659)/2.0
 sum -  nocc_ = 0.00002920
 On Iteration in Bisection 10
 a: 0.00003  b:-0.00367

 -0.20811 = (-0.20861 + -0.20760)/2.0
 sum -  nocc_ = -0.00182167
 On Iteration in Bisection 11
 a: -0.00182  b:-0.00367

 -0.20786 = (-0.20811 + -0.20760)/2.0
 sum -  nocc_ = -0.00089623
 On Iteration in Bisection 12
 a: -0.00090  b:-0.00182

 -0.20773 = (-0.20786 + -0.20760)/2.0
 sum -  nocc_ = -0.00043351
 On Iteration in Bisection 13
 a: -0.00043  b:-0.00090

 -0.20767 = (-0.20773 + -0.20760)/2.0
 sum -  nocc_ = -0.00020215
 On Iteration in Bisection 14
 a: -0.00020  b:-0.00043

 -0.20763 = (-0.20767 + -0.20760)/2.0
 sum -  nocc_ = -0.00008648
 On Iteration in Bisection 15
 a: -0.00009  b:-0.00020

 -0.20762 = (-0.20763 + -0.20760)/2.0
 sum -  nocc_ = -0.00002864
 On Iteration in Bisection 16
 a: -0.00003  b:-0.00009

 -0.20761 = (-0.20762 + -0.20760)/2.0
 sum -  nocc_ = 0.00000028
 On Iteration in Bisection 17
 a: 0.00000  b:-0.00003

 -0.20761 = (-0.20762 + -0.20761)/2.0
 sum -  nocc_ = -0.00001418
 On Iteration in Bisection 18
 a: -0.00001  b:-0.00003

 -0.20761 = (-0.20761 + -0.20761)/2.0
 sum -  nocc_ = -0.00000695
 On Iteration in Bisection 19
 a: -0.00001  b:-0.00001

 -0.20761 = (-0.20761 + -0.20761)/2.0
 sum -  nocc_ = -0.00000333
 On Iteration in Bisection 20
 a: -0.00000  b:-0.00001

 -0.20761 = (-0.20761 + -0.20761)/2.0
 sum -  nocc_ = -0.00000152
 On Iteration in Bisection 21
 a: -0.00000  b:-0.00000

 -0.20761 = (-0.20761 + -0.20761)/2.0
 sum -  nocc_ = -0.00000062
 On Iteration in Bisection 22
 a: -0.00000  b:-0.00000

 -0.20761 = (-0.20761 + -0.20761)/2.0
 sum -  nocc_ = -0.00000017
 On Iteration in Bisection 23
 a: -0.00000  b:-0.00000

 -0.20761 = (-0.20761 + -0.20761)/2.0
 sum -  nocc_ = 0.00000006
 On Iteration in Bisection 24
 a: 0.00000  b:-0.00000

 -0.20761 = (-0.20761 + -0.20761)/2.0
 sum -  nocc_ = -0.00000006
 On Iteration in Bisection 25
 a: -0.00000  b:-0.00000

 -0.20761 = (-0.20761 + -0.20761)/2.0
 sum -  nocc_ = 0.00000000
 ef = -0.20761 sum = 1.00000 

 Iter: 2  T:    20000.000  val:-0.207611  sumni 0.00000
 ne = 1.0000

 iter:3  failiter:3  energy:     -1.077362134311  total:     -0.812773530016  error:     -0.047443196092
 In Bisection function HOMO = -0.354  LUMO =  1.708

 0.67707 = (-0.35414 + 1.70828)/2.0
 sum -  nocc_ = 2.13350863
 On Iteration in Bisection 0
 a: 2.13351  b:-0.48889

 0.16147 = (-0.35414 + 0.67707)/2.0
 sum -  nocc_ = 0.97531859
 On Iteration in Bisection 1
 a: 0.97532  b:-0.48889

 -0.09634 = (-0.35414 + 0.16147)/2.0
 sum -  nocc_ = 0.38019502
 On Iteration in Bisection 2
 a: 0.38020  b:-0.48889

 -0.22524 = (-0.35414 + -0.09634)/2.0
 sum -  nocc_ = -0.03635698
 On Iteration in Bisection 3
 a: -0.03636  b:-0.48889

 -0.16079 = (-0.22524 + -0.09634)/2.0
 sum -  nocc_ = 0.14711207
 On Iteration in Bisection 4
 a: 0.14711  b:-0.03636

 -0.19301 = (-0.22524 + -0.16079)/2.0
 sum -  nocc_ = 0.05232211
 On Iteration in Bisection 5
 a: 0.05232  b:-0.03636

 -0.20913 = (-0.22524 + -0.19301)/2.0
 sum -  nocc_ = 0.00786142
 On Iteration in Bisection 6
 a: 0.00786  b:-0.03636

 -0.21718 = (-0.22524 + -0.20913)/2.0
 sum -  nocc_ = -0.01419289
 On Iteration in Bisection 7
 a: -0.01419  b:-0.03636

 -0.21315 = (-0.21718 + -0.20913)/2.0
 sum -  nocc_ = -0.00316267
 On Iteration in Bisection 8
 a: -0.00316  b:-0.01419

 -0.21114 = (-0.21315 + -0.20913)/2.0
 sum -  nocc_ = 0.00234881
 On Iteration in Bisection 9
 a: 0.00235  b:-0.00316

 -0.21215 = (-0.21315 + -0.21114)/2.0
 sum -  nocc_ = -0.00040691
 On Iteration in Bisection 10
 a: -0.00041  b:-0.00316

 -0.21164 = (-0.21215 + -0.21114)/2.0
 sum -  nocc_ = 0.00097094
 On Iteration in Bisection 11
 a: 0.00097  b:-0.00041

 -0.21190 = (-0.21215 + -0.21164)/2.0
 sum -  nocc_ = 0.00028201
 On Iteration in Bisection 12
 a: 0.00028  b:-0.00041

 -0.21202 = (-0.21215 + -0.21190)/2.0
 sum -  nocc_ = -0.00006245
 On Iteration in Bisection 13
 a: -0.00006  b:-0.00041

 -0.21196 = (-0.21202 + -0.21190)/2.0
 sum -  nocc_ = 0.00010978
 On Iteration in Bisection 14
 a: 0.00011  b:-0.00006

 -0.21199 = (-0.21202 + -0.21196)/2.0
 sum -  nocc_ = 0.00002367
 On Iteration in Bisection 15
 a: 0.00002  b:-0.00006

 -0.21201 = (-0.21202 + -0.21199)/2.0
 sum -  nocc_ = -0.00001939
 On Iteration in Bisection 16
 a: -0.00002  b:-0.00006

 -0.21200 = (-0.21201 + -0.21199)/2.0
 sum -  nocc_ = 0.00000214
 On Iteration in Bisection 17
 a: 0.00000  b:-0.00002

 -0.21200 = (-0.21201 + -0.21200)/2.0
 sum -  nocc_ = -0.00000862
 On Iteration in Bisection 18
 a: -0.00001  b:-0.00002

 -0.21200 = (-0.21200 + -0.21200)/2.0
 sum -  nocc_ = -0.00000324
 On Iteration in Bisection 19
 a: -0.00000  b:-0.00001

 -0.21200 = (-0.21200 + -0.21200)/2.0
 sum -  nocc_ = -0.00000055
 On Iteration in Bisection 20
 a: -0.00000  b:-0.00000

 -0.21200 = (-0.21200 + -0.21200)/2.0
 sum -  nocc_ = 0.00000079
 On Iteration in Bisection 21
 a: 0.00000  b:-0.00000

 -0.21200 = (-0.21200 + -0.21200)/2.0
 sum -  nocc_ = 0.00000012
 On Iteration in Bisection 22
 a: 0.00000  b:-0.00000

 -0.21200 = (-0.21200 + -0.21200)/2.0
 sum -  nocc_ = -0.00000021
 On Iteration in Bisection 23
 a: -0.00000  b:-0.00000

 -0.21200 = (-0.21200 + -0.21200)/2.0
 sum -  nocc_ = -0.00000005
 On Iteration in Bisection 24
 a: -0.00000  b:-0.00000

 -0.21200 = (-0.21200 + -0.21200)/2.0
 sum -  nocc_ = 0.00000004
 On Iteration in Bisection 25
 a: 0.00000  b:-0.00000

 -0.21200 = (-0.21200 + -0.21200)/2.0
 sum -  nocc_ = -0.00000000
 ef = -0.21200 sum = 1.00000 

 Iter: 3  T:    20000.000  val:-0.211999  sumni 0.00000
 ne = 1.0000

 iter:4  failiter:4  energy:     -1.115145468876  total:     -0.850556864581  error:     -0.037783334565
 In Bisection function HOMO = -0.365  LUMO =  1.704

 0.66978 = (-0.36453 + 1.70408)/2.0
 sum -  nocc_ = 2.08296867
 On Iteration in Bisection 0
 a: 2.08297  b:-0.49194

 0.15262 = (-0.36453 + 0.66978)/2.0
 sum -  nocc_ = 0.96661212
 On Iteration in Bisection 1
 a: 0.96661  b:-0.49194

 -0.10595 = (-0.36453 + 0.15262)/2.0
 sum -  nocc_ = 0.30871968
 On Iteration in Bisection 2
 a: 0.30872  b:-0.49194

 -0.23524 = (-0.36453 + -0.10595)/2.0
 sum -  nocc_ = -0.05600885
 On Iteration in Bisection 3
 a: -0.05601  b:-0.49194

 -0.17060 = (-0.23524 + -0.10595)/2.0
 sum -  nocc_ = 0.10331882
 On Iteration in Bisection 4
 a: 0.10332  b:-0.05601

 -0.20292 = (-0.23524 + -0.17060)/2.0
 sum -  nocc_ = 0.02213084
 On Iteration in Bisection 5
 a: 0.02213  b:-0.05601

 -0.21908 = (-0.23524 + -0.20292)/2.0
 sum -  nocc_ = -0.01664644
 On Iteration in Bisection 6
 a: -0.01665  b:-0.05601

 -0.21100 = (-0.21908 + -0.20292)/2.0
 sum -  nocc_ = 0.00273010
 On Iteration in Bisection 7
 a: 0.00273  b:-0.01665

 -0.21504 = (-0.21908 + -0.21100)/2.0
 sum -  nocc_ = -0.00695047
 On Iteration in Bisection 8
 a: -0.00695  b:-0.01665

 -0.21302 = (-0.21504 + -0.21100)/2.0
 sum -  nocc_ = -0.00210960
 On Iteration in Bisection 9
 a: -0.00211  b:-0.00695

 -0.21201 = (-0.21302 + -0.21100)/2.0
 sum -  nocc_ = 0.00031023
 On Iteration in Bisection 10
 a: 0.00031  b:-0.00211

 -0.21251 = (-0.21302 + -0.21201)/2.0
 sum -  nocc_ = -0.00089967
 On Iteration in Bisection 11
 a: -0.00090  b:-0.00211

 -0.21226 = (-0.21251 + -0.21201)/2.0
 sum -  nocc_ = -0.00029472
 On Iteration in Bisection 12
 a: -0.00029  b:-0.00090

 -0.21214 = (-0.21226 + -0.21201)/2.0
 sum -  nocc_ = 0.00000776
 On Iteration in Bisection 13
 a: 0.00001  b:-0.00029

 -0.21220 = (-0.21226 + -0.21214)/2.0
 sum -  nocc_ = -0.00014348
 On Iteration in Bisection 14
 a: -0.00014  b:-0.00029

 -0.21217 = (-0.21220 + -0.21214)/2.0
 sum -  nocc_ = -0.00006786
 On Iteration in Bisection 15
 a: -0.00007  b:-0.00014

 -0.21215 = (-0.21217 + -0.21214)/2.0
 sum -  nocc_ = -0.00003005
 On Iteration in Bisection 16
 a: -0.00003  b:-0.00007

 -0.21214 = (-0.21215 + -0.21214)/2.0
 sum -  nocc_ = -0.00001115
 On Iteration in Bisection 17
 a: -0.00001  b:-0.00003

 -0.21214 = (-0.21214 + -0.21214)/2.0
 sum -  nocc_ = -0.00000170
 On Iteration in Bisection 18
 a: -0.00000  b:-0.00001

 -0.21214 = (-0.21214 + -0.21214)/2.0
 sum -  nocc_ = 0.00000303
 On Iteration in Bisection 19
 a: 0.00000  b:-0.00000

 -0.21214 = (-0.21214 + -0.21214)/2.0
 sum -  nocc_ = 0.00000067
 On Iteration in Bisection 20
 a: 0.00000  b:-0.00000

 -0.21214 = (-0.21214 + -0.21214)/2.0
 sum -  nocc_ = -0.00000051
 On Iteration in Bisection 21
 a: -0.00000  b:-0.00000

 -0.21214 = (-0.21214 + -0.21214)/2.0
 sum -  nocc_ = 0.00000008
 On Iteration in Bisection 22
 a: 0.00000  b:-0.00000

 -0.21214 = (-0.21214 + -0.21214)/2.0
 sum -  nocc_ = -0.00000022
 On Iteration in Bisection 23
 a: -0.00000  b:-0.00000

 -0.21214 = (-0.21214 + -0.21214)/2.0
 sum -  nocc_ = -0.00000007
 On Iteration in Bisection 24
 a: -0.00000  b:-0.00000

 -0.21214 = (-0.21214 + -0.21214)/2.0
 sum -  nocc_ = 0.00000000
 ef = -0.21214 sum = 1.00000 

 Iter: 4  T:    20000.000  val:-0.212139  sumni 0.00000
 ne = 1.0000

 iter:5  failiter:5  energy:     -1.129260774224  total:     -0.864672169929  error:     -0.014115305348
 In Bisection function HOMO = -0.368  LUMO =  1.704

 0.66827 = (-0.36760 + 1.70415)/2.0
 sum -  nocc_ = 2.06957605
 On Iteration in Bisection 0
 a: 2.06958  b:-0.49270

 0.15033 = (-0.36760 + 0.66827)/2.0
 sum -  nocc_ = 0.96357438
 On Iteration in Bisection 1
 a: 0.96357  b:-0.49270

 -0.10864 = (-0.36760 + 0.15033)/2.0
 sum -  nocc_ = 0.28840966
 On Iteration in Bisection 2
 a: 0.28841  b:-0.49270

 -0.23812 = (-0.36760 + -0.10864)/2.0
 sum -  nocc_ = -0.06088305
 On Iteration in Bisection 3
 a: -0.06088  b:-0.49270

 -0.17338 = (-0.23812 + -0.10864)/2.0
 sum -  nocc_ = 0.09179732
 On Iteration in Bisection 4
 a: 0.09180  b:-0.06088

 -0.20575 = (-0.23812 + -0.17338)/2.0
 sum -  nocc_ = 0.01442077
 On Iteration in Bisection 5
 a: 0.01442  b:-0.06088

 -0.22193 = (-0.23812 + -0.20575)/2.0
 sum -  nocc_ = -0.02281606
 On Iteration in Bisection 6
 a: -0.02282  b:-0.06088

 -0.21384 = (-0.22193 + -0.20575)/2.0
 sum -  nocc_ = -0.00417845
 On Iteration in Bisection 7
 a: -0.00418  b:-0.02282

 -0.20980 = (-0.21384 + -0.20575)/2.0
 sum -  nocc_ = 0.00511527
 On Iteration in Bisection 8
 a: 0.00512  b:-0.00418

 -0.21182 = (-0.21384 + -0.20980)/2.0
 sum -  nocc_ = 0.00046827
 On Iteration in Bisection 9
 a: 0.00047  b:-0.00418

 -0.21283 = (-0.21384 + -0.21182)/2.0
 sum -  nocc_ = -0.00185496
 On Iteration in Bisection 10
 a: -0.00185  b:-0.00418

 -0.21232 = (-0.21283 + -0.21182)/2.0
 sum -  nocc_ = -0.00069333
 On Iteration in Bisection 11
 a: -0.00069  b:-0.00185

 -0.21207 = (-0.21232 + -0.21182)/2.0
 sum -  nocc_ = -0.00011253
 On Iteration in Bisection 12
 a: -0.00011  b:-0.00069

 -0.21195 = (-0.21207 + -0.21182)/2.0
 sum -  nocc_ = 0.00017787
 On Iteration in Bisection 13
 a: 0.00018  b:-0.00011

 -0.21201 = (-0.21207 + -0.21195)/2.0
 sum -  nocc_ = 0.00003267
 On Iteration in Bisection 14
 a: 0.00003  b:-0.00011

 -0.21204 = (-0.21207 + -0.21201)/2.0
 sum -  nocc_ = -0.00003993
 On Iteration in Bisection 15
 a: -0.00004  b:-0.00011

 -0.21202 = (-0.21204 + -0.21201)/2.0
 sum -  nocc_ = -0.00000363
 On Iteration in Bisection 16
 a: -0.00000  b:-0.00004

 -0.21202 = (-0.21202 + -0.21201)/2.0
 sum -  nocc_ = 0.00001452
 On Iteration in Bisection 17
 a: 0.00001  b:-0.00000

 -0.21202 = (-0.21202 + -0.21202)/2.0
 sum -  nocc_ = 0.00000545
 On Iteration in Bisection 18
 a: 0.00001  b:-0.00000

 -0.21202 = (-0.21202 + -0.21202)/2.0
 sum -  nocc_ = 0.00000091
 On Iteration in Bisection 19
 a: 0.00000  b:-0.00000

 -0.21202 = (-0.21202 + -0.21202)/2.0
 sum -  nocc_ = -0.00000136
 On Iteration in Bisection 20
 a: -0.00000  b:-0.00000

 -0.21202 = (-0.21202 + -0.21202)/2.0
 sum -  nocc_ = -0.00000022
 On Iteration in Bisection 21
 a: -0.00000  b:-0.00000

 -0.21202 = (-0.21202 + -0.21202)/2.0
 sum -  nocc_ = 0.00000034
 On Iteration in Bisection 22
 a: 0.00000  b:-0.00000

 -0.21202 = (-0.21202 + -0.21202)/2.0
 sum -  nocc_ = 0.00000006
 On Iteration in Bisection 23
 a: 0.00000  b:-0.00000

 -0.21202 = (-0.21202 + -0.21202)/2.0
 sum -  nocc_ = -0.00000008
 On Iteration in Bisection 24
 a: -0.00000  b:-0.00000

 -0.21202 = (-0.21202 + -0.21202)/2.0
 sum -  nocc_ = -0.00000001
 On Iteration in Bisection 25
 a: -0.00000  b:-0.00000

 -0.21202 = (-0.21202 + -0.21202)/2.0
 sum -  nocc_ = 0.00000002
 On Iteration in Bisection 26
 a: 0.00000  b:-0.00000

 -0.21202 = (-0.21202 + -0.21202)/2.0
 sum -  nocc_ = 0.00000001
 ef = -0.21202 sum = 1.00000 

 Iter: 5  T:    20000.000  val:-0.212023  sumni 0.00000
 ne = 1.0000

 iter:6  failiter:6  energy:     -1.133469846568  total:     -0.868881242273  error:     -0.004209072344
 In Bisection function HOMO = -0.368  LUMO =  1.704

 0.66794 = (-0.36843 + 1.70431)/2.0
 sum -  nocc_ = 2.06615627
 On Iteration in Bisection 0
 a: 2.06616  b:-0.49291

 0.14975 = (-0.36843 + 0.66794)/2.0
 sum -  nocc_ = 0.96269645
 On Iteration in Bisection 1
 a: 0.96270  b:-0.49291

 -0.10934 = (-0.36843 + 0.14975)/2.0
 sum -  nocc_ = 0.28290371
 On Iteration in Bisection 2
 a: 0.28290  b:-0.49291

 -0.23889 = (-0.36843 + -0.10934)/2.0
 sum -  nocc_ = -0.06215221
 On Iteration in Bisection 3
 a: -0.06215  b:-0.49291

 -0.17411 = (-0.23889 + -0.10934)/2.0
 sum -  nocc_ = 0.08874084
 On Iteration in Bisection 4
 a: 0.08874  b:-0.06215

 -0.20650 = (-0.23889 + -0.17411)/2.0
 sum -  nocc_ = 0.01239348
 On Iteration in Bisection 5
 a: 0.01239  b:-0.06215

 -0.22269 = (-0.23889 + -0.20650)/2.0
 sum -  nocc_ = -0.02443078
 On Iteration in Bisection 6
 a: -0.02443  b:-0.06215

 -0.21460 = (-0.22269 + -0.20650)/2.0
 sum -  nocc_ = -0.00599086
 On Iteration in Bisection 7
 a: -0.00599  b:-0.02443

 -0.21055 = (-0.21460 + -0.20650)/2.0
 sum -  nocc_ = 0.00319760
 On Iteration in Bisection 8
 a: 0.00320  b:-0.00599

 -0.21257 = (-0.21460 + -0.21055)/2.0
 sum -  nocc_ = -0.00139623
 On Iteration in Bisection 9
 a: -0.00140  b:-0.00599

 -0.21156 = (-0.21257 + -0.21055)/2.0
 sum -  nocc_ = 0.00090062
 On Iteration in Bisection 10
 a: 0.00090  b:-0.00140

 -0.21207 = (-0.21257 + -0.21156)/2.0
 sum -  nocc_ = -0.00024780
 On Iteration in Bisection 11
 a: -0.00025  b:-0.00140

 -0.21181 = (-0.21207 + -0.21156)/2.0
 sum -  nocc_ = 0.00032641
 On Iteration in Bisection 12
 a: 0.00033  b:-0.00025

 -0.21194 = (-0.21207 + -0.21181)/2.0
 sum -  nocc_ = 0.00003931
 On Iteration in Bisection 13
 a: 0.00004  b:-0.00025

 -0.21200 = (-0.21207 + -0.21194)/2.0
 sum -  nocc_ = -0.00010425
 On Iteration in Bisection 14
 a: -0.00010  b:-0.00025

 -0.21197 = (-0.21200 + -0.21194)/2.0
 sum -  nocc_ = -0.00003247
 On Iteration in Bisection 15
 a: -0.00003  b:-0.00010

 -0.21196 = (-0.21197 + -0.21194)/2.0
 sum -  nocc_ = 0.00000342
 On Iteration in Bisection 16
 a: 0.00000  b:-0.00003

 -0.21196 = (-0.21197 + -0.21196)/2.0
 sum -  nocc_ = -0.00001453
 On Iteration in Bisection 17
 a: -0.00001  b:-0.00003

 -0.21196 = (-0.21196 + -0.21196)/2.0
 sum -  nocc_ = -0.00000555
 On Iteration in Bisection 18
 a: -0.00001  b:-0.00001

 -0.21196 = (-0.21196 + -0.21196)/2.0
 sum -  nocc_ = -0.00000107
 On Iteration in Bisection 19
 a: -0.00000  b:-0.00001

 -0.21196 = (-0.21196 + -0.21196)/2.0
 sum -  nocc_ = 0.00000117
 On Iteration in Bisection 20
 a: 0.00000  b:-0.00000

 -0.21196 = (-0.21196 + -0.21196)/2.0
 sum -  nocc_ = 0.00000005
 On Iteration in Bisection 21
 a: 0.00000  b:-0.00000

 -0.21196 = (-0.21196 + -0.21196)/2.0
 sum -  nocc_ = -0.00000051
 On Iteration in Bisection 22
 a: -0.00000  b:-0.00000

 -0.21196 = (-0.21196 + -0.21196)/2.0
 sum -  nocc_ = -0.00000023
 On Iteration in Bisection 23
 a: -0.00000  b:-0.00000

 -0.21196 = (-0.21196 + -0.21196)/2.0
 sum -  nocc_ = -0.00000009
 On Iteration in Bisection 24
 a: -0.00000  b:-0.00000

 -0.21196 = (-0.21196 + -0.21196)/2.0
 sum -  nocc_ = -0.00000002
 On Iteration in Bisection 25
 a: -0.00000  b:-0.00000

 -0.21196 = (-0.21196 + -0.21196)/2.0
 sum -  nocc_ = 0.00000002
 On Iteration in Bisection 26
 a: 0.00000  b:-0.00000

 -0.21196 = (-0.21196 + -0.21196)/2.0
 sum -  nocc_ = 0.00000000
 ef = -0.21196 sum = 1.00000 

 Iter: 6  T:    20000.000  val:-0.211957  sumni 0.00000
 ne = 1.0000

 iter:7  failiter:7  energy:     -1.134614695488  total:     -0.870026091193  error:     -0.001144848920
 In Bisection function HOMO = -0.369  LUMO =  1.704

 0.66786 = (-0.36865 + 1.70437)/2.0
 sum -  nocc_ = 2.06526401
 On Iteration in Bisection 0
 a: 2.06526  b:-0.49296

 0.14960 = (-0.36865 + 0.66786)/2.0
 sum -  nocc_ = 0.96245687
 On Iteration in Bisection 1
 a: 0.96246  b:-0.49296

 -0.10952 = (-0.36865 + 0.14960)/2.0
 sum -  nocc_ = 0.28142619
 On Iteration in Bisection 2
 a: 0.28143  b:-0.49296

 -0.23909 = (-0.36865 + -0.10952)/2.0
 sum -  nocc_ = -0.06248885
 On Iteration in Bisection 3
 a: -0.06249  b:-0.49296

 -0.17431 = (-0.23909 + -0.10952)/2.0
 sum -  nocc_ = 0.08792540
 On Iteration in Bisection 4
 a: 0.08793  b:-0.06249

 -0.20670 = (-0.23909 + -0.17431)/2.0
 sum -  nocc_ = 0.01185403
 On Iteration in Bisection 5
 a: 0.01185  b:-0.06249

 -0.22289 = (-0.23909 + -0.20670)/2.0
 sum -  nocc_ = -0.02485982
 On Iteration in Bisection 6
 a: -0.02486  b:-0.06249

 -0.21480 = (-0.22289 + -0.20670)/2.0
 sum -  nocc_ = -0.00647279
 On Iteration in Bisection 7
 a: -0.00647  b:-0.02486

 -0.21075 = (-0.21480 + -0.20670)/2.0
 sum -  nocc_ = 0.00268749
 On Iteration in Bisection 8
 a: 0.00269  b:-0.00647

 -0.21277 = (-0.21480 + -0.21075)/2.0
 sum -  nocc_ = -0.00189210
 On Iteration in Bisection 9
 a: -0.00189  b:-0.00647

 -0.21176 = (-0.21277 + -0.21075)/2.0
 sum -  nocc_ = 0.00039767
 On Iteration in Bisection 10
 a: 0.00040  b:-0.00189

 -0.21226 = (-0.21277 + -0.21176)/2.0
 sum -  nocc_ = -0.00074720
 On Iteration in Bisection 11
 a: -0.00075  b:-0.00189

 -0.21201 = (-0.21226 + -0.21176)/2.0
 sum -  nocc_ = -0.00017477
 On Iteration in Bisection 12
 a: -0.00017  b:-0.00075

 -0.21189 = (-0.21201 + -0.21176)/2.0
 sum -  nocc_ = 0.00011145
 On Iteration in Bisection 13
 a: 0.00011  b:-0.00017

 -0.21195 = (-0.21201 + -0.21189)/2.0
 sum -  nocc_ = -0.00003166
 On Iteration in Bisection 14
 a: -0.00003  b:-0.00017

 -0.21192 = (-0.21195 + -0.21189)/2.0
 sum -  nocc_ = 0.00003990
 On Iteration in Bisection 15
 a: 0.00004  b:-0.00003

 -0.21193 = (-0.21195 + -0.21192)/2.0
 sum -  nocc_ = 0.00000412
 On Iteration in Bisection 16
 a: 0.00000  b:-0.00003

 -0.21194 = (-0.21195 + -0.21193)/2.0
 sum -  nocc_ = -0.00001377
 On Iteration in Bisection 17
 a: -0.00001  b:-0.00003

 -0.21194 = (-0.21194 + -0.21193)/2.0
 sum -  nocc_ = -0.00000482
 On Iteration in Bisection 18
 a: -0.00000  b:-0.00001

 -0.21193 = (-0.21194 + -0.21193)/2.0
 sum -  nocc_ = -0.00000035
 On Iteration in Bisection 19
 a: -0.00000  b:-0.00000

 -0.21193 = (-0.21193 + -0.21193)/2.0
 sum -  nocc_ = 0.00000188
 On Iteration in Bisection 20
 a: 0.00000  b:-0.00000

 -0.21193 = (-0.21193 + -0.21193)/2.0
 sum -  nocc_ = 0.00000077
 On Iteration in Bisection 21
 a: 0.00000  b:-0.00000

 -0.21193 = (-0.21193 + -0.21193)/2.0
 sum -  nocc_ = 0.00000021
 On Iteration in Bisection 22
 a: 0.00000  b:-0.00000

 -0.21193 = (-0.21193 + -0.21193)/2.0
 sum -  nocc_ = -0.00000007
 On Iteration in Bisection 23
 a: -0.00000  b:-0.00000

 -0.21193 = (-0.21193 + -0.21193)/2.0
 sum -  nocc_ = 0.00000007
 On Iteration in Bisection 24
 a: 0.00000  b:-0.00000

 -0.21193 = (-0.21193 + -0.21193)/2.0
 sum -  nocc_ = -0.00000000
 ef = -0.21193 sum = 1.00000 

 Iter: 7  T:    20000.000  val:-0.211934  sumni 0.00000
 ne = 1.0000

 iter:8  failiter:8  energy:     -1.134920403913  total:     -0.870331799618  error:     -0.000305708424
 In Bisection function HOMO = -0.369  LUMO =  1.704

 0.66784 = (-0.36871 + 1.70439)/2.0
 sum -  nocc_ = 2.06502831
 On Iteration in Bisection 0
 a: 2.06503  b:-0.49297

 0.14956 = (-0.36871 + 0.66784)/2.0
 sum -  nocc_ = 0.96239241
 On Iteration in Bisection 1
 a: 0.96239  b:-0.49297

 -0.10957 = (-0.36871 + 0.14956)/2.0
 sum -  nocc_ = 0.28103026
 On Iteration in Bisection 2
 a: 0.28103  b:-0.49297

 -0.23914 = (-0.36871 + -0.10957)/2.0
 sum -  nocc_ = -0.06257875
 On Iteration in Bisection 3
 a: -0.06258  b:-0.49297

 -0.17436 = (-0.23914 + -0.10957)/2.0
 sum -  nocc_ = 0.08770722
 On Iteration in Bisection 4
 a: 0.08771  b:-0.06258

 -0.20675 = (-0.23914 + -0.17436)/2.0
 sum -  nocc_ = 0.01170981
 On Iteration in Bisection 5
 a: 0.01171  b:-0.06258

 -0.22295 = (-0.23914 + -0.20675)/2.0
 sum -  nocc_ = -0.02497447
 On Iteration in Bisection 6
 a: -0.02497  b:-0.06258

 -0.21485 = (-0.22295 + -0.20675)/2.0
 sum -  nocc_ = -0.00660160
 On Iteration in Bisection 7
 a: -0.00660  b:-0.02497

 -0.21080 = (-0.21485 + -0.20675)/2.0
 sum -  nocc_ = 0.00255113
 On Iteration in Bisection 8
 a: 0.00255  b:-0.00660

 -0.21282 = (-0.21485 + -0.21080)/2.0
 sum -  nocc_ = -0.00202464
 On Iteration in Bisection 9
 a: -0.00202  b:-0.00660

 -0.21181 = (-0.21282 + -0.21080)/2.0
 sum -  nocc_ = 0.00026322
 On Iteration in Bisection 10
 a: 0.00026  b:-0.00202

 -0.21232 = (-0.21282 + -0.21181)/2.0
 sum -  nocc_ = -0.00088069
 On Iteration in Bisection 11
 a: -0.00088  b:-0.00202

 -0.21206 = (-0.21232 + -0.21181)/2.0
 sum -  nocc_ = -0.00030873
 On Iteration in Bisection 12
 a: -0.00031  b:-0.00088

 -0.21194 = (-0.21206 + -0.21181)/2.0
 sum -  nocc_ = -0.00002275
 On Iteration in Bisection 13
 a: -0.00002  b:-0.00031

 -0.21187 = (-0.21194 + -0.21181)/2.0
 sum -  nocc_ = 0.00012023
 On Iteration in Bisection 14
 a: 0.00012  b:-0.00002

 -0.21191 = (-0.21194 + -0.21187)/2.0
 sum -  nocc_ = 0.00004874
 On Iteration in Bisection 15
 a: 0.00005  b:-0.00002

 -0.21192 = (-0.21194 + -0.21191)/2.0
 sum -  nocc_ = 0.00001299
 On Iteration in Bisection 16
 a: 0.00001  b:-0.00002

 -0.21193 = (-0.21194 + -0.21192)/2.0
 sum -  nocc_ = -0.00000488
 On Iteration in Bisection 17
 a: -0.00000  b:-0.00002

 -0.21193 = (-0.21193 + -0.21192)/2.0
 sum -  nocc_ = 0.00000406
 On Iteration in Bisection 18
 a: 0.00000  b:-0.00000

 -0.21193 = (-0.21193 + -0.21193)/2.0
 sum -  nocc_ = -0.00000041
 On Iteration in Bisection 19
 a: -0.00000  b:-0.00000

 -0.21193 = (-0.21193 + -0.21193)/2.0
 sum -  nocc_ = 0.00000182
 On Iteration in Bisection 20
 a: 0.00000  b:-0.00000

 -0.21193 = (-0.21193 + -0.21193)/2.0
 sum -  nocc_ = 0.00000070
 On Iteration in Bisection 21
 a: 0.00000  b:-0.00000

 -0.21193 = (-0.21193 + -0.21193)/2.0
 sum -  nocc_ = 0.00000015
 On Iteration in Bisection 22
 a: 0.00000  b:-0.00000

 -0.21193 = (-0.21193 + -0.21193)/2.0
 sum -  nocc_ = -0.00000013
 On Iteration in Bisection 23
 a: -0.00000  b:-0.00000

 -0.21193 = (-0.21193 + -0.21193)/2.0
 sum -  nocc_ = 0.00000001
 ef = -0.21193 sum = 1.00000 

 Iter: 8  T:    20000.000  val:-0.211927  sumni 0.00000
 ne = 1.0000

 iter:9  failiter:9  energy:     -1.135001844393  total:     -0.870413240098  error:     -0.000081440481
 In Bisection function HOMO = -0.369  LUMO =  1.704

 0.66783 = (-0.36873 + 1.70439)/2.0
 sum -  nocc_ = 2.06496565
 On Iteration in Bisection 0
 a: 2.06497  b:-0.49298

 0.14955 = (-0.36873 + 0.66783)/2.0
 sum -  nocc_ = 0.96237513
 On Iteration in Bisection 1
 a: 0.96238  b:-0.49298

 -0.10959 = (-0.36873 + 0.14955)/2.0
 sum -  nocc_ = 0.28092415
 On Iteration in Bisection 2
 a: 0.28092  b:-0.49298

 -0.23916 = (-0.36873 + -0.10959)/2.0
 sum -  nocc_ = -0.06260282
 On Iteration in Bisection 3
 a: -0.06260  b:-0.49298

 -0.17437 = (-0.23916 + -0.10959)/2.0
 sum -  nocc_ = 0.08764877
 On Iteration in Bisection 4
 a: 0.08765  b:-0.06260

 -0.20676 = (-0.23916 + -0.17437)/2.0
 sum -  nocc_ = 0.01167119
 On Iteration in Bisection 5
 a: 0.01167  b:-0.06260

 -0.22296 = (-0.23916 + -0.20676)/2.0
 sum -  nocc_ = -0.02500516
 On Iteration in Bisection 6
 a: -0.02501  b:-0.06260

 -0.21486 = (-0.22296 + -0.20676)/2.0
 sum -  nocc_ = -0.00663609
 On Iteration in Bisection 7
 a: -0.00664  b:-0.02501

 -0.21081 = (-0.21486 + -0.20676)/2.0
 sum -  nocc_ = 0.00251461
 On Iteration in Bisection 8
 a: 0.00251  b:-0.00664

 -0.21284 = (-0.21486 + -0.21081)/2.0
 sum -  nocc_ = -0.00206014
 On Iteration in Bisection 9
 a: -0.00206  b:-0.00664

 -0.21182 = (-0.21284 + -0.21081)/2.0
 sum -  nocc_ = 0.00022722
 On Iteration in Bisection 10
 a: 0.00023  b:-0.00206

 -0.21233 = (-0.21284 + -0.21182)/2.0
 sum -  nocc_ = -0.00091644
 On Iteration in Bisection 11
 a: -0.00092  b:-0.00206

 -0.21208 = (-0.21233 + -0.21182)/2.0
 sum -  nocc_ = -0.00034461
 On Iteration in Bisection 12
 a: -0.00034  b:-0.00092

 -0.21195 = (-0.21208 + -0.21182)/2.0
 sum -  nocc_ = -0.00005870
 On Iteration in Bisection 13
 a: -0.00006  b:-0.00034

 -0.21189 = (-0.21195 + -0.21182)/2.0
 sum -  nocc_ = 0.00008426
 On Iteration in Bisection 14
 a: 0.00008  b:-0.00006

 -0.21192 = (-0.21195 + -0.21189)/2.0
 sum -  nocc_ = 0.00001278
 On Iteration in Bisection 15
 a: 0.00001  b:-0.00006

 -0.21194 = (-0.21195 + -0.21192)/2.0
 sum -  nocc_ = -0.00002296
 On Iteration in Bisection 16
 a: -0.00002  b:-0.00006

 -0.21193 = (-0.21194 + -0.21192)/2.0
 sum -  nocc_ = -0.00000509
 On Iteration in Bisection 17
 a: -0.00001  b:-0.00002

 -0.21192 = (-0.21193 + -0.21192)/2.0
 sum -  nocc_ = 0.00000385
 On Iteration in Bisection 18
 a: 0.00000  b:-0.00001

 -0.21193 = (-0.21193 + -0.21192)/2.0
 sum -  nocc_ = -0.00000062
 On Iteration in Bisection 19
 a: -0.00000  b:-0.00001

 -0.21192 = (-0.21193 + -0.21192)/2.0
 sum -  nocc_ = 0.00000162
 On Iteration in Bisection 20
 a: 0.00000  b:-0.00000

 -0.21193 = (-0.21193 + -0.21192)/2.0
 sum -  nocc_ = 0.00000050
 On Iteration in Bisection 21
 a: 0.00000  b:-0.00000

 -0.21193 = (-0.21193 + -0.21193)/2.0
 sum -  nocc_ = -0.00000006
 On Iteration in Bisection 22
 a: -0.00000  b:-0.00000

 -0.21193 = (-0.21193 + -0.21193)/2.0
 sum -  nocc_ = 0.00000022
 On Iteration in Bisection 23
 a: 0.00000  b:-0.00000

 -0.21193 = (-0.21193 + -0.21193)/2.0
 sum -  nocc_ = 0.00000008
 On Iteration in Bisection 24
 a: 0.00000  b:-0.00000

 -0.21193 = (-0.21193 + -0.21193)/2.0
 sum -  nocc_ = 0.00000001
 ef = -0.21193 sum = 1.00000 

 Iter: 9  T:    20000.000  val:-0.211925  sumni 0.00000
 ne = 1.0000

 iter:10  failiter:10  energy:     -1.135023567508  total:     -0.870434963213  error:     -0.000021723114
 In Bisection function HOMO = -0.369  LUMO =  1.704

 0.66783 = (-0.36873 + 1.70439)/2.0
 sum -  nocc_ = 2.06494893
 On Iteration in Bisection 0
 a: 2.06495  b:-0.49298

 0.14955 = (-0.36873 + 0.66783)/2.0
 sum -  nocc_ = 0.96237050
 On Iteration in Bisection 1
 a: 0.96237  b:-0.49298

 -0.10959 = (-0.36873 + 0.14955)/2.0
 sum -  nocc_ = 0.28089570
 On Iteration in Bisection 2
 a: 0.28090  b:-0.49298

 -0.23916 = (-0.36873 + -0.10959)/2.0
 sum -  nocc_ = -0.06260927
 On Iteration in Bisection 3
 a: -0.06261  b:-0.49298

 -0.17437 = (-0.23916 + -0.10959)/2.0
 sum -  nocc_ = 0.08763310
 On Iteration in Bisection 4
 a: 0.08763  b:-0.06261

 -0.20677 = (-0.23916 + -0.17437)/2.0
 sum -  nocc_ = 0.01166083
 On Iteration in Bisection 5
 a: 0.01166  b:-0.06261

 -0.22296 = (-0.23916 + -0.20677)/2.0
 sum -  nocc_ = -0.02501339
 On Iteration in Bisection 6
 a: -0.02501  b:-0.06261

 -0.21487 = (-0.22296 + -0.20677)/2.0
 sum -  nocc_ = -0.00664534
 On Iteration in Bisection 7
 a: -0.00665  b:-0.02501

 -0.21082 = (-0.21487 + -0.20677)/2.0
 sum -  nocc_ = 0.00250482
 On Iteration in Bisection 8
 a: 0.00250  b:-0.00665

 -0.21284 = (-0.21487 + -0.21082)/2.0
 sum -  nocc_ = -0.00206965
 On Iteration in Bisection 9
 a: -0.00207  b:-0.00665

 -0.21183 = (-0.21284 + -0.21082)/2.0
 sum -  nocc_ = 0.00021757
 On Iteration in Bisection 10
 a: 0.00022  b:-0.00207

 -0.21233 = (-0.21284 + -0.21183)/2.0
 sum -  nocc_ = -0.00092603
 On Iteration in Bisection 11
 a: -0.00093  b:-0.00207

 -0.21208 = (-0.21233 + -0.21183)/2.0
 sum -  nocc_ = -0.00035423
 On Iteration in Bisection 12
 a: -0.00035  b:-0.00093

 -0.21195 = (-0.21208 + -0.21183)/2.0
 sum -  nocc_ = -0.00006833
 On Iteration in Bisection 13
 a: -0.00007  b:-0.00035

 -0.21189 = (-0.21195 + -0.21183)/2.0
 sum -  nocc_ = 0.00007462
 On Iteration in Bisection 14
 a: 0.00007  b:-0.00007

 -0.21192 = (-0.21195 + -0.21189)/2.0
 sum -  nocc_ = 0.00000315
 On Iteration in Bisection 15
 a: 0.00000  b:-0.00007

 -0.21194 = (-0.21195 + -0.21192)/2.0
 sum -  nocc_ = -0.00003259
 On Iteration in Bisection 16
 a: -0.00003  b:-0.00007

 -0.21193 = (-0.21194 + -0.21192)/2.0
 sum -  nocc_ = -0.00001472
 On Iteration in Bisection 17
 a: -0.00001  b:-0.00003

 -0.21193 = (-0.21193 + -0.21192)/2.0
 sum -  nocc_ = -0.00000579
 On Iteration in Bisection 18
 a: -0.00001  b:-0.00001

 -0.21193 = (-0.21193 + -0.21192)/2.0
 sum -  nocc_ = -0.00000132
 On Iteration in Bisection 19
 a: -0.00000  b:-0.00001

 -0.21192 = (-0.21193 + -0.21192)/2.0
 sum -  nocc_ = 0.00000091
 On Iteration in Bisection 20
 a: 0.00000  b:-0.00000

 -0.21192 = (-0.21193 + -0.21192)/2.0
 sum -  nocc_ = -0.00000020
 On Iteration in Bisection 21
 a: -0.00000  b:-0.00000

 -0.21192 = (-0.21192 + -0.21192)/2.0
 sum -  nocc_ = 0.00000035
 On Iteration in Bisection 22
 a: 0.00000  b:-0.00000

 -0.21192 = (-0.21192 + -0.21192)/2.0
 sum -  nocc_ = 0.00000007
 On Iteration in Bisection 23
 a: 0.00000  b:-0.00000

 -0.21192 = (-0.21192 + -0.21192)/2.0
 sum -  nocc_ = -0.00000006
 On Iteration in Bisection 24
 a: -0.00000  b:-0.00000

 -0.21192 = (-0.21192 + -0.21192)/2.0
 sum -  nocc_ = 0.00000001
 ef = -0.21192 sum = 1.00000 

 Iter: 10  T:    20000.000  val:-0.211925  sumni 0.00000
 ne = 1.0000

 iter:11  failiter:11  energy:     -1.135029367768  total:     -0.870440763473  error:     -0.000005800260
 In Bisection function HOMO = -0.369  LUMO =  1.704

 0.66783 = (-0.36873 + 1.70439)/2.0
 sum -  nocc_ = 2.06494446
 On Iteration in Bisection 0
 a: 2.06494  b:-0.49298

 0.14955 = (-0.36873 + 0.66783)/2.0
 sum -  nocc_ = 0.96236925
 On Iteration in Bisection 1
 a: 0.96237  b:-0.49298

 -0.10959 = (-0.36873 + 0.14955)/2.0
 sum -  nocc_ = 0.28088807
 On Iteration in Bisection 2
 a: 0.28089  b:-0.49298

 -0.23916 = (-0.36873 + -0.10959)/2.0
 sum -  nocc_ = -0.06261100
 On Iteration in Bisection 3
 a: -0.06261  b:-0.49298

 -0.17438 = (-0.23916 + -0.10959)/2.0
 sum -  nocc_ = 0.08762890
 On Iteration in Bisection 4
 a: 0.08763  b:-0.06261

 -0.20677 = (-0.23916 + -0.17438)/2.0
 sum -  nocc_ = 0.01165806
 On Iteration in Bisection 5
 a: 0.01166  b:-0.06261

 -0.22296 = (-0.23916 + -0.20677)/2.0
 sum -  nocc_ = -0.02501560
 On Iteration in Bisection 6
 a: -0.02502  b:-0.06261

 -0.21487 = (-0.22296 + -0.20677)/2.0
 sum -  nocc_ = -0.00664782
 On Iteration in Bisection 7
 a: -0.00665  b:-0.02502

 -0.21082 = (-0.21487 + -0.20677)/2.0
 sum -  nocc_ = 0.00250220
 On Iteration in Bisection 8
 a: 0.00250  b:-0.00665

 -0.21284 = (-0.21487 + -0.21082)/2.0
 sum -  nocc_ = -0.00207221
 On Iteration in Bisection 9
 a: -0.00207  b:-0.00665

 -0.21183 = (-0.21284 + -0.21082)/2.0
 sum -  nocc_ = 0.00021498
 On Iteration in Bisection 10
 a: 0.00021  b:-0.00207

 -0.21234 = (-0.21284 + -0.21183)/2.0
 sum -  nocc_ = -0.00092860
 On Iteration in Bisection 11
 a: -0.00093  b:-0.00207

 -0.21208 = (-0.21234 + -0.21183)/2.0
 sum -  nocc_ = -0.00035681
 On Iteration in Bisection 12
 a: -0.00036  b:-0.00093

 -0.21196 = (-0.21208 + -0.21183)/2.0
 sum -  nocc_ = -0.00007091
 On Iteration in Bisection 13
 a: -0.00007  b:-0.00036

 -0.21189 = (-0.21196 + -0.21183)/2.0
 sum -  nocc_ = 0.00007203
 On Iteration in Bisection 14
 a: 0.00007  b:-0.00007

 -0.21192 = (-0.21196 + -0.21189)/2.0
 sum -  nocc_ = 0.00000056
 On Iteration in Bisection 15
 a: 0.00000  b:-0.00007

 -0.21194 = (-0.21196 + -0.21192)/2.0
 sum -  nocc_ = -0.00003518
 On Iteration in Bisection 16
 a: -0.00004  b:-0.00007

 -0.21193 = (-0.21194 + -0.21192)/2.0
 sum -  nocc_ = -0.00001731
 On Iteration in Bisection 17
 a: -0.00002  b:-0.00004

 -0.21193 = (-0.21193 + -0.21192)/2.0
 sum -  nocc_ = -0.00000837
 On Iteration in Bisection 18
 a: -0.00001  b:-0.00002

 -0.21193 = (-0.21193 + -0.21192)/2.0
 sum -  nocc_ = -0.00000391
 On Iteration in Bisection 19
 a: -0.00000  b:-0.00001

 -0.21193 = (-0.21193 + -0.21192)/2.0
 sum -  nocc_ = -0.00000167
 On Iteration in Bisection 20
 a: -0.00000  b:-0.00000

 -0.21192 = (-0.21193 + -0.21192)/2.0
 sum -  nocc_ = -0.00000056
 On Iteration in Bisection 21
 a: -0.00000  b:-0.00000

 -0.21192 = (-0.21192 + -0.21192)/2.0
 sum -  nocc_ = 0.00000000
 ef = -0.21192 sum = 1.00000 

 Iter: 11  T:    20000.000  val:-0.211925  sumni 0.00000
 ne = 1.0000

 iter:12  failiter:12  energy:     -1.135030922087  total:     -0.870442317792  error:     -0.000001554320
 In Bisection function HOMO = -0.369  LUMO =  1.704

 0.66783 = (-0.36873 + 1.70439)/2.0
 sum -  nocc_ = 2.06494326
 On Iteration in Bisection 0
 a: 2.06494  b:-0.49298

 0.14955 = (-0.36873 + 0.66783)/2.0
 sum -  nocc_ = 0.96236892
 On Iteration in Bisection 1
 a: 0.96237  b:-0.49298

 -0.10959 = (-0.36873 + 0.14955)/2.0
 sum -  nocc_ = 0.28088603
 On Iteration in Bisection 2
 a: 0.28089  b:-0.49298

 -0.23916 = (-0.36873 + -0.10959)/2.0
 sum -  nocc_ = -0.06261146
 On Iteration in Bisection 3
 a: -0.06261  b:-0.49298

 -0.17438 = (-0.23916 + -0.10959)/2.0
 sum -  nocc_ = 0.08762777
 On Iteration in Bisection 4
 a: 0.08763  b:-0.06261

 -0.20677 = (-0.23916 + -0.17438)/2.0
 sum -  nocc_ = 0.01165731
 On Iteration in Bisection 5
 a: 0.01166  b:-0.06261

 -0.22296 = (-0.23916 + -0.20677)/2.0
 sum -  nocc_ = -0.02501619
 On Iteration in Bisection 6
 a: -0.02502  b:-0.06261

 -0.21487 = (-0.22296 + -0.20677)/2.0
 sum -  nocc_ = -0.00664848
 On Iteration in Bisection 7
 a: -0.00665  b:-0.02502

 -0.21082 = (-0.21487 + -0.20677)/2.0
 sum -  nocc_ = 0.00250150
 On Iteration in Bisection 8
 a: 0.00250  b:-0.00665

 -0.21284 = (-0.21487 + -0.21082)/2.0
 sum -  nocc_ = -0.00207289
 On Iteration in Bisection 9
 a: -0.00207  b:-0.00665

 -0.21183 = (-0.21284 + -0.21082)/2.0
 sum -  nocc_ = 0.00021429
 On Iteration in Bisection 10
 a: 0.00021  b:-0.00207

 -0.21234 = (-0.21284 + -0.21183)/2.0
 sum -  nocc_ = -0.00092928
 On Iteration in Bisection 11
 a: -0.00093  b:-0.00207

 -0.21208 = (-0.21234 + -0.21183)/2.0
 sum -  nocc_ = -0.00035750
 On Iteration in Bisection 12
 a: -0.00036  b:-0.00093

 -0.21196 = (-0.21208 + -0.21183)/2.0
 sum -  nocc_ = -0.00007160
 On Iteration in Bisection 13
 a: -0.00007  b:-0.00036

 -0.21189 = (-0.21196 + -0.21183)/2.0
 sum -  nocc_ = 0.00007134
 On Iteration in Bisection 14
 a: 0.00007  b:-0.00007

 -0.21192 = (-0.21196 + -0.21189)/2.0
 sum -  nocc_ = -0.00000013
 On Iteration in Bisection 15
 a: -0.00000  b:-0.00007

 -0.21191 = (-0.21192 + -0.21189)/2.0
 sum -  nocc_ = 0.00003560
 On Iteration in Bisection 16
 a: 0.00004  b:-0.00000

 -0.21192 = (-0.21192 + -0.21191)/2.0
 sum -  nocc_ = 0.00001774
 On Iteration in Bisection 17
 a: 0.00002  b:-0.00000

 -0.21192 = (-0.21192 + -0.21192)/2.0
 sum -  nocc_ = 0.00000880
 On Iteration in Bisection 18
 a: 0.00001  b:-0.00000

 -0.21192 = (-0.21192 + -0.21192)/2.0
 sum -  nocc_ = 0.00000434
 On Iteration in Bisection 19
 a: 0.00000  b:-0.00000

 -0.21192 = (-0.21192 + -0.21192)/2.0
 sum -  nocc_ = 0.00000210
 On Iteration in Bisection 20
 a: 0.00000  b:-0.00000

 -0.21192 = (-0.21192 + -0.21192)/2.0
 sum -  nocc_ = 0.00000098
 On Iteration in Bisection 21
 a: 0.00000  b:-0.00000

 -0.21192 = (-0.21192 + -0.21192)/2.0
 sum -  nocc_ = 0.00000043
 On Iteration in Bisection 22
 a: 0.00000  b:-0.00000

 -0.21192 = (-0.21192 + -0.21192)/2.0
 sum -  nocc_ = 0.00000015
 On Iteration in Bisection 23
 a: 0.00000  b:-0.00000

 -0.21192 = (-0.21192 + -0.21192)/2.0
 sum -  nocc_ = 0.00000001
 ef = -0.21192 sum = 1.00000 

 Iter: 12  T:    20000.000  val:-0.211925  sumni 0.00000
 ne = 1.0000

 iter:13  failiter:13  energy:     -1.135031343804  total:     -0.870442739509  error:     -0.000000421716
 In Bisection function HOMO = -0.369  LUMO =  1.704

 0.66783 = (-0.36873 + 1.70439)/2.0
 sum -  nocc_ = 2.06494294
 On Iteration in Bisection 0
 a: 2.06494  b:-0.49298

 0.14955 = (-0.36873 + 0.66783)/2.0
 sum -  nocc_ = 0.96236883
 On Iteration in Bisection 1
 a: 0.96237  b:-0.49298

 -0.10959 = (-0.36873 + 0.14955)/2.0
 sum -  nocc_ = 0.28088548
 On Iteration in Bisection 2
 a: 0.28089  b:-0.49298

 -0.23916 = (-0.36873 + -0.10959)/2.0
 sum -  nocc_ = -0.06261159
 On Iteration in Bisection 3
 a: -0.06261  b:-0.49298

 -0.17438 = (-0.23916 + -0.10959)/2.0
 sum -  nocc_ = 0.08762747
 On Iteration in Bisection 4
 a: 0.08763  b:-0.06261

 -0.20677 = (-0.23916 + -0.17438)/2.0
 sum -  nocc_ = 0.01165711
 On Iteration in Bisection 5
 a: 0.01166  b:-0.06261

 -0.22296 = (-0.23916 + -0.20677)/2.0
 sum -  nocc_ = -0.02501635
 On Iteration in Bisection 6
 a: -0.02502  b:-0.06261

 -0.21487 = (-0.22296 + -0.20677)/2.0
 sum -  nocc_ = -0.00664866
 On Iteration in Bisection 7
 a: -0.00665  b:-0.02502

 -0.21082 = (-0.21487 + -0.20677)/2.0
 sum -  nocc_ = 0.00250131
 On Iteration in Bisection 8
 a: 0.00250  b:-0.00665

 -0.21284 = (-0.21487 + -0.21082)/2.0
 sum -  nocc_ = -0.00207307
 On Iteration in Bisection 9
 a: -0.00207  b:-0.00665

 -0.21183 = (-0.21284 + -0.21082)/2.0
 sum -  nocc_ = 0.00021410
 On Iteration in Bisection 10
 a: 0.00021  b:-0.00207

 -0.21234 = (-0.21284 + -0.21183)/2.0
 sum -  nocc_ = -0.00092947
 On Iteration in Bisection 11
 a: -0.00093  b:-0.00207

 -0.21208 = (-0.21234 + -0.21183)/2.0
 sum -  nocc_ = -0.00035768
 On Iteration in Bisection 12
 a: -0.00036  b:-0.00093

 -0.21196 = (-0.21208 + -0.21183)/2.0
 sum -  nocc_ = -0.00007179
[...]
 sum -  nocc_ = 0.00021403
 On Iteration in Bisection 10
 a: 0.00021  b:-0.00207

 -0.21234 = (-0.21284 + -0.21183)/2.0
 sum -  nocc_ = -0.00092954
 On Iteration in Bisection 11
 a: -0.00093  b:-0.00207

 -0.21208 = (-0.21234 + -0.21183)/2.0
 sum -  nocc_ = -0.00035775
 On Iteration in Bisection 12
 a: -0.00036  b:-0.00093

 -0.21196 = (-0.21208 + -0.21183)/2.0
 sum -  nocc_ = -0.00007186
 On Iteration in Bisection 13
 a: -0.00007  b:-0.00036

 -0.21189 = (-0.21196 + -0.21183)/2.0
 sum -  nocc_ = 0.00007109
 On Iteration in Bisection 14
 a: 0.00007  b:-0.00007

 -0.21192 = (-0.21196 + -0.21189)/2.0
 sum -  nocc_ = -0.00000039
 On Iteration in Bisection 15
 a: -0.00000  b:-0.00007

 -0.21191 = (-0.21192 + -0.21189)/2.0
 sum -  nocc_ = 0.00003535
 On Iteration in Bisection 16
 a: 0.00004  b:-0.00000

 -0.21192 = (-0.21192 + -0.21191)/2.0
 sum -  nocc_ = 0.00001748
 On Iteration in Bisection 17
 a: 0.00002  b:-0.00000

 -0.21192 = (-0.21192 + -0.21192)/2.0
 sum -  nocc_ = 0.00000855
 On Iteration in Bisection 18
 a: 0.00001  b:-0.00000

 -0.21192 = (-0.21192 + -0.21192)/2.0
 sum -  nocc_ = 0.00000408
 On Iteration in Bisection 19
 a: 0.00000  b:-0.00000

 -0.21192 = (-0.21192 + -0.21192)/2.0
 sum -  nocc_ = 0.00000185
 On Iteration in Bisection 20
 a: 0.00000  b:-0.00000

 -0.21192 = (-0.21192 + -0.21192)/2.0
 sum -  nocc_ = 0.00000073
 On Iteration in Bisection 21
 a: 0.00000  b:-0.00000

 -0.21192 = (-0.21192 + -0.21192)/2.0
 sum -  nocc_ = 0.00000017
 On Iteration in Bisection 22
 a: 0.00000  b:-0.00000

 -0.21192 = (-0.21192 + -0.21192)/2.0
 sum -  nocc_ = -0.00000011
 On Iteration in Bisection 23
 a: -0.00000  b:-0.00000

 -0.21192 = (-0.21192 + -0.21192)/2.0
 sum -  nocc_ = 0.00000003
 On Iteration in Bisection 24
 a: 0.00000  b:-0.00000

 -0.21192 = (-0.21192 + -0.21192)/2.0
 sum -  nocc_ = -0.00000004
 On Iteration in Bisection 25
 a: -0.00000  b:-0.00000

 -0.21192 = (-0.21192 + -0.21192)/2.0
 sum -  nocc_ = -0.00000000
 ef = -0.21192 sum = 1.00000 

 Iter: 18  T:    20000.000  val:-0.211924  sumni 0.00000
 ne = 1.0000

 iter:19  failiter:19  energy:     -1.135031489310  total:     -0.870442885015  error:     -0.000000000436
 In Bisection function HOMO = -0.369  LUMO =  1.704

 0.66783 = (-0.36873 + 1.70439)/2.0
 sum -  nocc_ = 2.06494283
 On Iteration in Bisection 0
 a: 2.06494  b:-0.49298

 0.14955 = (-0.36873 + 0.66783)/2.0
 sum -  nocc_ = 0.96236880
 On Iteration in Bisection 1
 a: 0.96237  b:-0.49298

 -0.10959 = (-0.36873 + 0.14955)/2.0
 sum -  nocc_ = 0.28088528
 On Iteration in Bisection 2
 a: 0.28089  b:-0.49298

 -0.23916 = (-0.36873 + -0.10959)/2.0
 sum -  nocc_ = -0.06261163
 On Iteration in Bisection 3
 a: -0.06261  b:-0.49298

 -0.17438 = (-0.23916 + -0.10959)/2.0
 sum -  nocc_ = 0.08762736
 On Iteration in Bisection 4
 a: 0.08763  b:-0.06261

 -0.20677 = (-0.23916 + -0.17438)/2.0
 sum -  nocc_ = 0.01165704
 On Iteration in Bisection 5
 a: 0.01166  b:-0.06261

 -0.22296 = (-0.23916 + -0.20677)/2.0
 sum -  nocc_ = -0.02501641
 On Iteration in Bisection 6
 a: -0.02502  b:-0.06261

 -0.21487 = (-0.22296 + -0.20677)/2.0
 sum -  nocc_ = -0.00664873
 On Iteration in Bisection 7
 a: -0.00665  b:-0.02502

 -0.21082 = (-0.21487 + -0.20677)/2.0
 sum -  nocc_ = 0.00250124
 On Iteration in Bisection 8
 a: 0.00250  b:-0.00665

 -0.21284 = (-0.21487 + -0.21082)/2.0
 sum -  nocc_ = -0.00207314
 On Iteration in Bisection 9
 a: -0.00207  b:-0.00665

 -0.21183 = (-0.21284 + -0.21082)/2.0
 sum -  nocc_ = 0.00021403
 On Iteration in Bisection 10
 a: 0.00021  b:-0.00207

 -0.21234 = (-0.21284 + -0.21183)/2.0
 sum -  nocc_ = -0.00092954
 On Iteration in Bisection 11
 a: -0.00093  b:-0.00207

 -0.21208 = (-0.21234 + -0.21183)/2.0
 sum -  nocc_ = -0.00035775
 On Iteration in Bisection 12
 a: -0.00036  b:-0.00093

 -0.21196 = (-0.21208 + -0.21183)/2.0
 sum -  nocc_ = -0.00007186
 On Iteration in Bisection 13
 a: -0.00007  b:-0.00036

 -0.21189 = (-0.21196 + -0.21183)/2.0
 sum -  nocc_ = 0.00007109
 On Iteration in Bisection 14
 a: 0.00007  b:-0.00007

 -0.21192 = (-0.21196 + -0.21189)/2.0
 sum -  nocc_ = -0.00000039
 On Iteration in Bisection 15
 a: -0.00000  b:-0.00007

 -0.21191 = (-0.21192 + -0.21189)/2.0
 sum -  nocc_ = 0.00003535
 On Iteration in Bisection 16
 a: 0.00004  b:-0.00000

 -0.21192 = (-0.21192 + -0.21191)/2.0
 sum -  nocc_ = 0.00001748
 On Iteration in Bisection 17
 a: 0.00002  b:-0.00000

 -0.21192 = (-0.21192 + -0.21192)/2.0
 sum -  nocc_ = 0.00000855
 On Iteration in Bisection 18
 a: 0.00001  b:-0.00000

 -0.21192 = (-0.21192 + -0.21192)/2.0
 sum -  nocc_ = 0.00000408
 On Iteration in Bisection 19
 a: 0.00000  b:-0.00000

 -0.21192 = (-0.21192 + -0.21192)/2.0
 sum -  nocc_ = 0.00000185
 On Iteration in Bisection 20
 a: 0.00000  b:-0.00000

 -0.21192 = (-0.21192 + -0.21192)/2.0
 sum -  nocc_ = 0.00000073
 On Iteration in Bisection 21
 a: 0.00000  b:-0.00000

 -0.21192 = (-0.21192 + -0.21192)/2.0
 sum -  nocc_ = 0.00000017
 On Iteration in Bisection 22
 a: 0.00000  b:-0.00000

 -0.21192 = (-0.21192 + -0.21192)/2.0
 sum -  nocc_ = -0.00000011
 On Iteration in Bisection 23
 a: -0.00000  b:-0.00000

 -0.21192 = (-0.21192 + -0.21192)/2.0
 sum -  nocc_ = 0.00000003
 On Iteration in Bisection 24
 a: 0.00000  b:-0.00000

 -0.21192 = (-0.21192 + -0.21192)/2.0
 sum -  nocc_ = -0.00000004
 On Iteration in Bisection 25
 a: -0.00000  b:-0.00000

 -0.21192 = (-0.21192 + -0.21192)/2.0
 sum -  nocc_ = -0.00000000
 ef = -0.21192 sum = 1.00000 

 Iter: 19  T:    20000.000  val:-0.211924  sumni 0.00000
 ne = 1.0000

 iter:20  failiter:20  energy:     -1.135031489426  total:     -0.870442885131  error:     -0.000000000116
 In Bisection function HOMO = -0.369  LUMO =  1.704

 0.66783 = (-0.36873 + 1.70439)/2.0
 sum -  nocc_ = 2.06494283
 On Iteration in Bisection 0
 a: 2.06494  b:-0.49298

 0.14955 = (-0.36873 + 0.66783)/2.0
 sum -  nocc_ = 0.96236880
 On Iteration in Bisection 1
 a: 0.96237  b:-0.49298

 -0.10959 = (-0.36873 + 0.14955)/2.0
 sum -  nocc_ = 0.28088528
 On Iteration in Bisection 2
 a: 0.28089  b:-0.49298

 -0.23916 = (-0.36873 + -0.10959)/2.0
 sum -  nocc_ = -0.06261163
 On Iteration in Bisection 3
 a: -0.06261  b:-0.49298

 -0.17438 = (-0.23916 + -0.10959)/2.0
 sum -  nocc_ = 0.08762736
 On Iteration in Bisection 4
 a: 0.08763  b:-0.06261

 -0.20677 = (-0.23916 + -0.17438)/2.0
 sum -  nocc_ = 0.01165704
 On Iteration in Bisection 5
 a: 0.01166  b:-0.06261

 -0.22296 = (-0.23916 + -0.20677)/2.0
 sum -  nocc_ = -0.02501641
 On Iteration in Bisection 6
 a: -0.02502  b:-0.06261

 -0.21487 = (-0.22296 + -0.20677)/2.0
 sum -  nocc_ = -0.00664873
 On Iteration in Bisection 7
 a: -0.00665  b:-0.02502

 -0.21082 = (-0.21487 + -0.20677)/2.0
 sum -  nocc_ = 0.00250124
 On Iteration in Bisection 8
 a: 0.00250  b:-0.00665

 -0.21284 = (-0.21487 + -0.21082)/2.0
 sum -  nocc_ = -0.00207314
 On Iteration in Bisection 9
 a: -0.00207  b:-0.00665

 -0.21183 = (-0.21284 + -0.21082)/2.0
 sum -  nocc_ = 0.00021403
 On Iteration in Bisection 10
 a: 0.00021  b:-0.00207

 -0.21234 = (-0.21284 + -0.21183)/2.0
 sum -  nocc_ = -0.00092954
 On Iteration in Bisection 11
 a: -0.00093  b:-0.00207

 -0.21208 = (-0.21234 + -0.21183)/2.0
 sum -  nocc_ = -0.00035775
 On Iteration in Bisection 12
 a: -0.00036  b:-0.00093

 -0.21196 = (-0.21208 + -0.21183)/2.0
 sum -  nocc_ = -0.00007186
 On Iteration in Bisection 13
 a: -0.00007  b:-0.00036

 -0.21189 = (-0.21196 + -0.21183)/2.0
 sum -  nocc_ = 0.00007109
 On Iteration in Bisection 14
 a: 0.00007  b:-0.00007

 -0.21192 = (-0.21196 + -0.21189)/2.0
 sum -  nocc_ = -0.00000039
 On Iteration in Bisection 15
 a: -0.00000  b:-0.00007

 -0.21191 = (-0.21192 + -0.21189)/2.0
 sum -  nocc_ = 0.00003535
 On Iteration in Bisection 16
 a: 0.00004  b:-0.00000

 -0.21192 = (-0.21192 + -0.21191)/2.0
 sum -  nocc_ = 0.00001748
 On Iteration in Bisection 17
 a: 0.00002  b:-0.00000

 -0.21192 = (-0.21192 + -0.21192)/2.0
 sum -  nocc_ = 0.00000855
 On Iteration in Bisection 18
 a: 0.00001  b:-0.00000

 -0.21192 = (-0.21192 + -0.21192)/2.0
 sum -  nocc_ = 0.00000408
 On Iteration in Bisection 19
 a: 0.00000  b:-0.00000

 -0.21192 = (-0.21192 + -0.21192)/2.0
 sum -  nocc_ = 0.00000185
 On Iteration in Bisection 20
 a: 0.00000  b:-0.00000

 -0.21192 = (-0.21192 + -0.21192)/2.0
 sum -  nocc_ = 0.00000073
 On Iteration in Bisection 21
 a: 0.00000  b:-0.00000

 -0.21192 = (-0.21192 + -0.21192)/2.0
 sum -  nocc_ = 0.00000017
 On Iteration in Bisection 22
 a: 0.00000  b:-0.00000

 -0.21192 = (-0.21192 + -0.21192)/2.0
 sum -  nocc_ = -0.00000011
 On Iteration in Bisection 23
 a: -0.00000  b:-0.00000

 -0.21192 = (-0.21192 + -0.21192)/2.0
 sum -  nocc_ = 0.00000003
 On Iteration in Bisection 24
 a: 0.00000  b:-0.00000

 -0.21192 = (-0.21192 + -0.21192)/2.0
 sum -  nocc_ = -0.00000004
 On Iteration in Bisection 25
 a: -0.00000  b:-0.00000

 -0.21192 = (-0.21192 + -0.21192)/2.0
 sum -  nocc_ = -0.00000000
 ef = -0.21192 sum = 1.00000 

 Iter: 20  T:    20000.000  val:-0.211924  sumni 0.00000
 ne = 1.0000

 iter:21  failiter:21  energy:     -1.135031489458  total:     -0.870442885163  error:     -0.000000000032
 In Bisection function HOMO = -0.369  LUMO =  1.704

 0.66783 = (-0.36873 + 1.70439)/2.0
 sum -  nocc_ = 2.06494283
 On Iteration in Bisection 0
 a: 2.06494  b:-0.49298

 0.14955 = (-0.36873 + 0.66783)/2.0
 sum -  nocc_ = 0.96236880
 On Iteration in Bisection 1
 a: 0.96237  b:-0.49298

 -0.10959 = (-0.36873 + 0.14955)/2.0
 sum -  nocc_ = 0.28088528
 On Iteration in Bisection 2
 a: 0.28089  b:-0.49298

 -0.23916 = (-0.36873 + -0.10959)/2.0
 sum -  nocc_ = -0.06261163
 On Iteration in Bisection 3
 a: -0.06261  b:-0.49298

 -0.17438 = (-0.23916 + -0.10959)/2.0
 sum -  nocc_ = 0.08762736
 On Iteration in Bisection 4
 a: 0.08763  b:-0.06261

 -0.20677 = (-0.23916 + -0.17438)/2.0
 sum -  nocc_ = 0.01165704
 On Iteration in Bisection 5
 a: 0.01166  b:-0.06261

 -0.22296 = (-0.23916 + -0.20677)/2.0
 sum -  nocc_ = -0.02501641
 On Iteration in Bisection 6
 a: -0.02502  b:-0.06261

 -0.21487 = (-0.22296 + -0.20677)/2.0
 sum -  nocc_ = -0.00664873
 On Iteration in Bisection 7
 a: -0.00665  b:-0.02502

 -0.21082 = (-0.21487 + -0.20677)/2.0
 sum -  nocc_ = 0.00250124
 On Iteration in Bisection 8
 a: 0.00250  b:-0.00665

 -0.21284 = (-0.21487 + -0.21082)/2.0
 sum -  nocc_ = -0.00207314
 On Iteration in Bisection 9
 a: -0.00207  b:-0.00665

 -0.21183 = (-0.21284 + -0.21082)/2.0
 sum -  nocc_ = 0.00021403
 On Iteration in Bisection 10
 a: 0.00021  b:-0.00207

 -0.21234 = (-0.21284 + -0.21183)/2.0
 sum -  nocc_ = -0.00092954
 On Iteration in Bisection 11
 a: -0.00093  b:-0.00207

 -0.21208 = (-0.21234 + -0.21183)/2.0
 sum -  nocc_ = -0.00035775
 On Iteration in Bisection 12
 a: -0.00036  b:-0.00093

 -0.21196 = (-0.21208 + -0.21183)/2.0
 sum -  nocc_ = -0.00007186
 On Iteration in Bisection 13
 a: -0.00007  b:-0.00036

 -0.21189 = (-0.21196 + -0.21183)/2.0
 sum -  nocc_ = 0.00007109
 On Iteration in Bisection 14
 a: 0.00007  b:-0.00007

 -0.21192 = (-0.21196 + -0.21189)/2.0
 sum -  nocc_ = -0.00000039
 On Iteration in Bisection 15
 a: -0.00000  b:-0.00007

 -0.21191 = (-0.21192 + -0.21189)/2.0
 sum -  nocc_ = 0.00003535
 On Iteration in Bisection 16
 a: 0.00004  b:-0.00000

 -0.21192 = (-0.21192 + -0.21191)/2.0
 sum -  nocc_ = 0.00001748
 On Iteration in Bisection 17
 a: 0.00002  b:-0.00000

 -0.21192 = (-0.21192 + -0.21192)/2.0
 sum -  nocc_ = 0.00000855
 On Iteration in Bisection 18
 a: 0.00001  b:-0.00000

 -0.21192 = (-0.21192 + -0.21192)/2.0
 sum -  nocc_ = 0.00000408
 On Iteration in Bisection 19
 a: 0.00000  b:-0.00000

 -0.21192 = (-0.21192 + -0.21192)/2.0
 sum -  nocc_ = 0.00000185
 On Iteration in Bisection 20
 a: 0.00000  b:-0.00000

 -0.21192 = (-0.21192 + -0.21192)/2.0
 sum -  nocc_ = 0.00000073
 On Iteration in Bisection 21
 a: 0.00000  b:-0.00000

 -0.21192 = (-0.21192 + -0.21192)/2.0
 sum -  nocc_ = 0.00000017
 On Iteration in Bisection 22
 a: 0.00000  b:-0.00000

 -0.21192 = (-0.21192 + -0.21192)/2.0
 sum -  nocc_ = -0.00000011
 On Iteration in Bisection 23
 a: -0.00000  b:-0.00000

 -0.21192 = (-0.21192 + -0.21192)/2.0
 sum -  nocc_ = 0.00000003
 On Iteration in Bisection 24
 a: 0.00000  b:-0.00000

 -0.21192 = (-0.21192 + -0.21192)/2.0
 sum -  nocc_ = -0.00000004
 On Iteration in Bisection 25
 a: -0.00000  b:-0.00000

 -0.21192 = (-0.21192 + -0.21192)/2.0
 sum -  nocc_ = -0.00000000
 ef = -0.21192 sum = 1.00000 

 Iter: 21  T:    20000.000  val:-0.211924  sumni 0.00000
 ne = 1.0000

 iter:22  failiter:22  energy:     -1.135031489467  total:     -0.870442885172  error:     -0.000000000009
 In Bisection function HOMO = -0.369  LUMO =  1.704

 0.66783 = (-0.36873 + 1.70439)/2.0
 sum -  nocc_ = 2.06494283
 On Iteration in Bisection 0
 a: 2.06494  b:-0.49298

 0.14955 = (-0.36873 + 0.66783)/2.0
 sum -  nocc_ = 0.96236880
 On Iteration in Bisection 1
 a: 0.96237  b:-0.49298

 -0.10959 = (-0.36873 + 0.14955)/2.0
 sum -  nocc_ = 0.28088528
 On Iteration in Bisection 2
 a: 0.28089  b:-0.49298

 -0.23916 = (-0.36873 + -0.10959)/2.0
 sum -  nocc_ = -0.06261163
 On Iteration in Bisection 3
 a: -0.06261  b:-0.49298

 -0.17438 = (-0.23916 + -0.10959)/2.0
 sum -  nocc_ = 0.08762736
 On Iteration in Bisection 4
 a: 0.08763  b:-0.06261

 -0.20677 = (-0.23916 + -0.17438)/2.0
 sum -  nocc_ = 0.01165704
 On Iteration in Bisection 5
 a: 0.01166  b:-0.06261

 -0.22296 = (-0.23916 + -0.20677)/2.0
 sum -  nocc_ = -0.02501641
 On Iteration in Bisection 6
 a: -0.02502  b:-0.06261

 -0.21487 = (-0.22296 + -0.20677)/2.0
 sum -  nocc_ = -0.00664873
 On Iteration in Bisection 7
 a: -0.00665  b:-0.02502

 -0.21082 = (-0.21487 + -0.20677)/2.0
 sum -  nocc_ = 0.00250124
 On Iteration in Bisection 8
 a: 0.00250  b:-0.00665

 -0.21284 = (-0.21487 + -0.21082)/2.0
 sum -  nocc_ = -0.00207314
 On Iteration in Bisection 9
 a: -0.00207  b:-0.00665

 -0.21183 = (-0.21284 + -0.21082)/2.0
 sum -  nocc_ = 0.00021403
 On Iteration in Bisection 10
 a: 0.00021  b:-0.00207

 -0.21234 = (-0.21284 + -0.21183)/2.0
 sum -  nocc_ = -0.00092954
 On Iteration in Bisection 11
 a: -0.00093  b:-0.00207

 -0.21208 = (-0.21234 + -0.21183)/2.0
 sum -  nocc_ = -0.00035775
 On Iteration in Bisection 12
 a: -0.00036  b:-0.00093

 -0.21196 = (-0.21208 + -0.21183)/2.0
 sum -  nocc_ = -0.00007186
 On Iteration in Bisection 13
 a: -0.00007  b:-0.00036

 -0.21189 = (-0.21196 + -0.21183)/2.0
 sum -  nocc_ = 0.00007109
 On Iteration in Bisection 14
 a: 0.00007  b:-0.00007

 -0.21192 = (-0.21196 + -0.21189)/2.0
 sum -  nocc_ = -0.00000039
 On Iteration in Bisection 15
 a: -0.00000  b:-0.00007

 -0.21191 = (-0.21192 + -0.21189)/2.0
 sum -  nocc_ = 0.00003535
 On Iteration in Bisection 16
 a: 0.00004  b:-0.00000

 -0.21192 = (-0.21192 + -0.21191)/2.0
 sum -  nocc_ = 0.00001748
 On Iteration in Bisection 17
 a: 0.00002  b:-0.00000

 -0.21192 = (-0.21192 + -0.21192)/2.0
 sum -  nocc_ = 0.00000855
 On Iteration in Bisection 18
 a: 0.00001  b:-0.00000

 -0.21192 = (-0.21192 + -0.21192)/2.0
 sum -  nocc_ = 0.00000408
 On Iteration in Bisection 19
 a: 0.00000  b:-0.00000

 -0.21192 = (-0.21192 + -0.21192)/2.0
 sum -  nocc_ = 0.00000185
 On Iteration in Bisection 20
 a: 0.00000  b:-0.00000

 -0.21192 = (-0.21192 + -0.21192)/2.0
 sum -  nocc_ = 0.00000073
 On Iteration in Bisection 21
 a: 0.00000  b:-0.00000

 -0.21192 = (-0.21192 + -0.21192)/2.0
 sum -  nocc_ = 0.00000017
 On Iteration in Bisection 22
 a: 0.00000  b:-0.00000

 -0.21192 = (-0.21192 + -0.21192)/2.0
 sum -  nocc_ = -0.00000011
 On Iteration in Bisection 23
 a: -0.00000  b:-0.00000

 -0.21192 = (-0.21192 + -0.21192)/2.0
 sum -  nocc_ = 0.00000003
 On Iteration in Bisection 24
 a: 0.00000  b:-0.00000

 -0.21192 = (-0.21192 + -0.21192)/2.0
 sum -  nocc_ = -0.00000004
 On Iteration in Bisection 25
 a: -0.00000  b:-0.00000

 -0.21192 = (-0.21192 + -0.21192)/2.0
 sum -  nocc_ = -0.00000000
 ef = -0.21192 sum = 1.00000 

 Iter: 22  T:    20000.000  val:-0.211924  sumni 0.00000
 ne = 1.0000

 iter:23  failiter:23  energy:     -1.135031489469  total:     -0.870442885174  error:     -0.000000000003
 In Bisection function HOMO = -0.369  LUMO =  1.704

 0.66783 = (-0.36873 + 1.70439)/2.0
 sum -  nocc_ = 2.06494283
 On Iteration in Bisection 0
 a: 2.06494  b:-0.49298

 0.14955 = (-0.36873 + 0.66783)/2.0
 sum -  nocc_ = 0.96236880
 On Iteration in Bisection 1
 a: 0.96237  b:-0.49298

 -0.10959 = (-0.36873 + 0.14955)/2.0
 sum -  nocc_ = 0.28088528
 On Iteration in Bisection 2
 a: 0.28089  b:-0.49298

 -0.23916 = (-0.36873 + -0.10959)/2.0
 sum -  nocc_ = -0.06261163
 On Iteration in Bisection 3
 a: -0.06261  b:-0.49298

 -0.17438 = (-0.23916 + -0.10959)/2.0
 sum -  nocc_ = 0.08762736
 On Iteration in Bisection 4
 a: 0.08763  b:-0.06261

 -0.20677 = (-0.23916 + -0.17438)/2.0
 sum -  nocc_ = 0.01165704
 On Iteration in Bisection 5
 a: 0.01166  b:-0.06261

 -0.22296 = (-0.23916 + -0.20677)/2.0
 sum -  nocc_ = -0.02501641
 On Iteration in Bisection 6
 a: -0.02502  b:-0.06261

 -0.21487 = (-0.22296 + -0.20677)/2.0
 sum -  nocc_ = -0.00664873
 On Iteration in Bisection 7
 a: -0.00665  b:-0.02502

 -0.21082 = (-0.21487 + -0.20677)/2.0
 sum -  nocc_ = 0.00250124
 On Iteration in Bisection 8
 a: 0.00250  b:-0.00665

 -0.21284 = (-0.21487 + -0.21082)/2.0
 sum -  nocc_ = -0.00207314
 On Iteration in Bisection 9
 a: -0.00207  b:-0.00665

 -0.21183 = (-0.21284 + -0.21082)/2.0
 sum -  nocc_ = 0.00021403
 On Iteration in Bisection 10
 a: 0.00021  b:-0.00207

 -0.21234 = (-0.21284 + -0.21183)/2.0
 sum -  nocc_ = -0.00092954
 On Iteration in Bisection 11
 a: -0.00093  b:-0.00207

 -0.21208 = (-0.21234 + -0.21183)/2.0
 sum -  nocc_ = -0.00035775
 On Iteration in Bisection 12
 a: -0.00036  b:-0.00093

 -0.21196 = (-0.21208 + -0.21183)/2.0
 sum -  nocc_ = -0.00007186
 On Iteration in Bisection 13
 a: -0.00007  b:-0.00036

 -0.21189 = (-0.21196 + -0.21183)/2.0
 sum -  nocc_ = 0.00007109
 On Iteration in Bisection 14
 a: 0.00007  b:-0.00007

 -0.21192 = (-0.21196 + -0.21189)/2.0
 sum -  nocc_ = -0.00000039
 On Iteration in Bisection 15
 a: -0.00000  b:-0.00007

 -0.21191 = (-0.21192 + -0.21189)/2.0
 sum -  nocc_ = 0.00003535
 On Iteration in Bisection 16
 a: 0.00004  b:-0.00000

 -0.21192 = (-0.21192 + -0.21191)/2.0
 sum -  nocc_ = 0.00001748
 On Iteration in Bisection 17
 a: 0.00002  b:-0.00000

 -0.21192 = (-0.21192 + -0.21192)/2.0
 sum -  nocc_ = 0.00000855
 On Iteration in Bisection 18
 a: 0.00001  b:-0.00000

 -0.21192 = (-0.21192 + -0.21192)/2.0
 sum -  nocc_ = 0.00000408
 On Iteration in Bisection 19
 a: 0.00000  b:-0.00000

 -0.21192 = (-0.21192 + -0.21192)/2.0
 sum -  nocc_ = 0.00000185
 On Iteration in Bisection 20
 a: 0.00000  b:-0.00000

 -0.21192 = (-0.21192 + -0.21192)/2.0
 sum -  nocc_ = 0.00000073
 On Iteration in Bisection 21
 a: 0.00000  b:-0.00000

 -0.21192 = (-0.21192 + -0.21192)/2.0
 sum -  nocc_ = 0.00000017
 On Iteration in Bisection 22
 a: 0.00000  b:-0.00000

 -0.21192 = (-0.21192 + -0.21192)/2.0
 sum -  nocc_ = -0.00000011
 On Iteration in Bisection 23
 a: -0.00000  b:-0.00000

 -0.21192 = (-0.21192 + -0.21192)/2.0
 sum -  nocc_ = 0.00000003
 On Iteration in Bisection 24
 a: 0.00000  b:-0.00000

 -0.21192 = (-0.21192 + -0.21192)/2.0
 sum -  nocc_ = -0.00000004
 On Iteration in Bisection 25
 a: -0.00000  b:-0.00000

 -0.21192 = (-0.21192 + -0.21192)/2.0
 sum -  nocc_ = -0.00000000
 ef = -0.21192 sum = 1.00000 

 Iter: 23  T:    20000.000  val:-0.211924  sumni 0.00000
 ne = 1.0000

 iter:24  failiter:24  energy:     -1.135031489470  total:     -0.870442885175  error:     -0.000000000001
 FTHFEnergy =    -0.870443
 FD_dis[0] = 0.92243691 with -0.368731 eig value
 FD_dis[1] = 0.07756095 with -0.055116 eig value
 FD_dis[2] = 0.00000120 with 0.651316 eig value
 FD_dis[3] = 0.00000093 with 0.667807 eig value
 FD_dis[4] = 0.00000000 with 1.339801 eig value
 FD_dis[5] = 0.00000000 with 1.451376 eig value
 FD_dis[6] = 0.00000000 with 1.451376 eig value
 FD_dis[7] = 0.00000000 with 1.498504 eig value
 FD_dis[8] = 0.00000000 with 1.498504 eig value
 FD_dis[9] = 0.00000000 with 1.704392 eig value
*** PSI4 exiting successfully. Buy a developer a beer!
