    -----------------------------------------------------------------------
          PSI4: An Open-Source Ab Initio Electronic Structure Package
                              PSI 4.0 Driver

               Git: Rev {master} 556e8139d3cfa1f96ccffe2cdf22cc56a185d2b2

    J. M. Turney, A. C. Simmonett, R. M. Parrish, E. G. Hohenstein,
    F. A. Evangelista, J. T. Fermann, B. J. Mintz, L. A. Burns, J. J. Wilke,
    M. L. Abrams, N. J. Russ, M. L. Leininger, C. L. Janssen, E. T. Seidl,
    W. D. Allen, H. F. Schaefer, R. A. King, E. F. Valeev, C. D. Sherrill,
    and T. D. Crawford, WIREs Comput. Mol. Sci. 2, 556-565 (2012)
    (doi: 10.1002/wcms.93)

                         Additional Contributions by
    A. E. DePrince, M. Saitow, U. Bozkaya, A. Yu. Sokolov
    -----------------------------------------------------------------------

    Process ID:  11951
    PSI4DATADIR: /Users/kevinhannon/Programs/psi4cmake/psi4/lib
    Memory level set to 256.000 MB

  ==> Input File <==

--------------------------------------------------------------------------

# PYTHONPATH must include directory above plugin directory.
#     Define either externally or here, then import plugin.
sys.path.insert(0, '/Users/kevinhannon/Programs/Quantum_Programs/Quantum-Programs/GS/')
import scf

molecule {
0 1
H
H 1 2.60000
symmetry c1
units angstrom
}


set {
  basis cc-pvdz
  reference rhf
  scf_type  pk
}

set scf {
  DO_FTHF true
  MAX_ITER 130
  MAX_TEMP 100
  TEMP_INCREMENT 0
  bisect  true
  bisect_iter  40
}
energy('rhf')

energy('scf')


--------------------------------------------------------------------------

*** tstart() called on Kevins-MacBook-Pro.local
*** at Fri Apr 10 18:02:15 2015

/Users/kevinhannon/Programs/Quantum_Programs/Quantum-Programs/GS/scf/scf.so loaded.

*** tstart() called on Kevins-MacBook-Pro.local
*** at Fri Apr 10 18:02:15 2015


         ---------------------------------------------------------
                                   SCF
            by Justin Turney, Rob Parrish, and Andy Simmonett
                              RHF Reference
                        1 Threads,    256 MiB Core
         ---------------------------------------------------------

  ==> Geometry <==

    Molecular point group: c1
    Full point group: D_inf_h

    Geometry (in Angstrom), charge = 0, multiplicity = 1:

       Center              X                  Y                   Z       
    ------------   -----------------  -----------------  -----------------
           H          0.000000000000     0.000000000000    -1.300000000000
           H          0.000000000000     0.000000000000     1.300000000000

  Running in c1 symmetry.

  Rotational constants: A = ************  B =      4.94874  C =      4.94874 [cm^-1]
  Rotational constants: A = ************  B = 148359.49785  C = 148359.49785 [MHz]
  Nuclear repulsion =    0.203529695611538

  Charge       = 0
  Multiplicity = 1
  Electrons    = 2
  Nalpha       = 1
  Nbeta        = 1

  ==> Algorithm <==

  SCF Algorithm Type is PK.
  DIIS enabled.
  MOM disabled.
  Fractional occupation disabled.
  Guess Type is CORE.
  Energy threshold   = 1.00e-06
  Density threshold  = 1.00e-06
  Integral threshold = 0.00e+00

  ==> Primary Basis <==

  Basis Set: CC-PVDZ
    Number of shells: 6
    Number of basis function: 10
    Number of Cartesian functions: 10
    Spherical Harmonics?: true
    Max angular momentum: 1

  ==> Pre-Iterations <==

   -------------------------------------------------------
    Irrep   Nso     Nmo     Nalpha   Nbeta   Ndocc  Nsocc
   -------------------------------------------------------
     A         10      10       0       0       0       0
   -------------------------------------------------------
    Total      10      10       1       1       1       0
   -------------------------------------------------------

  Starting with a DF guess...

 OEINTS: Overlap, kinetic, potential, dipole, and quadrupole integrals
         stored in file 35.

  ==> Integral Setup <==

  ==> DFJK: Density-Fitted J/K Matrices <==

    J tasked:                  Yes
    K tasked:                  Yes
    wK tasked:                  No
    OpenMP threads:              1
    Integrals threads:           1
    Memory (MB):               183
    Algorithm:                Core
    Integral Cache:           NONE
    Schwarz Cutoff:          1E-12
    Fitting Condition:       1E-12

   => Auxiliary Basis Set <=

  Basis Set: 
    Number of shells: 18
    Number of basis function: 46
    Number of Cartesian functions: 50
    Spherical Harmonics?: true
    Max angular momentum: 2

  Minimum eigenvalue in the overlap matrix is 2.5136279051E-01.
  Using Symmetric Orthogonalization.
  SCF Guess: Core (One-Electron) Hamiltonian.

  ==> Iterations <==

                           Total Energy        Delta E     RMS |[F,P]|

   @DF-RHF iter   1:    -0.83747698787582   -8.37477e-01   1.25258e-02 
   @DF-RHF iter   2:    -0.85578526802137   -1.83083e-02   2.15580e-03 DIIS
   @DF-RHF iter   3:    -0.85635634314133   -5.71075e-04   3.33121e-05 DIIS
   @DF-RHF iter   4:    -0.85635644111475   -9.79734e-08   8.23463e-07 DIIS

  DF guess converged.

  ==> Integral Setup <==

 MINTS: Wrapper to libmints.
   by Justin Turney

   Calculation information:
      Number of atoms:                   2
      Number of AO shells:               6
      Number of SO shells:               6
      Number of primitives:             10
      Number of atomic orbitals:        10
      Number of basis functions:        10

      Number of irreps:                  1
      Integral cutoff                 0.00e+00
      Number of functions per irrep: [  10 ]

 OEINTS: Overlap, kinetic, potential, dipole, and quadrupole integrals
         stored in file 35.

      Computing two-electron integrals...done
      Computed 512 non-zero two-electron integrals.
        Stored in file 33.

	Batch   1 pq = [       0,      55] index = [             0,1540]
  ==> DiskJK: Disk-Based J/K Matrices <==

    J tasked:                  Yes
    K tasked:                  Yes
    wK tasked:                  No
    Memory (MB):               183
    Schwarz Cutoff:          1E-12

   @RHF iter   5:    -0.85633155565024    2.48855e-05   6.84061e-06 DIIS
   @RHF iter   6:    -0.85633156071700   -5.06676e-09   1.14895e-06 DIIS
   @RHF iter   7:    -0.85633156087287   -1.55872e-10   2.54930e-08 DIIS

  ==> Post-Iterations <==

    Orbital Energies (a.u.)
    -----------------------

    Doubly Occupied:                                                      

       1A     -0.343446  

    Virtual:                                                              

       2A     -0.092033     3A      0.616458     4A      0.671305  
       5A      1.459354     6A      1.462934     7A      1.462934  
       8A      1.468558     9A      1.468558    10A      1.507533  

    Final Occupation by Irrep:
              A 
    DOCC [     1 ]

  Energy converged.

  @RHF Final Energy:    -0.85633156087287

   => Energetics <=

    Nuclear Repulsion Energy =              0.2035296956115385
    One-Electron Energy =                  -1.4328295003168809
    Two-Electron Energy =                   0.3729682438324711
    DFT Exchange-Correlation Energy =       0.0000000000000000
    Empirical Dispersion Energy =           0.0000000000000000
    PCM Polarization Energy =               0.0000000000000000
    EFP Energy =                            0.0000000000000000
    Total Energy =                         -0.8563315608728714

    Alert: EFP and PCM quantities not currently incorporated into SCF psivars.

Properties will be evaluated at   0.000000,   0.000000,   0.000000 Bohr
  ==> Properties <==


Properties computed using the SCF density matrix

  Nuclear Dipole Moment: (a.u.)
     X:     0.0000      Y:     0.0000      Z:     0.0000

  Electronic Dipole Moment: (a.u.)
     X:     0.0000      Y:     0.0000      Z:    -0.0000

  Dipole Moment: (a.u.)
     X:     0.0000      Y:     0.0000      Z:    -0.0000     Total:     0.0000

  Dipole Moment: (Debye)
     X:     0.0000      Y:     0.0000      Z:    -0.0000     Total:     0.0000


  Saving occupied orbitals to File 180.

*** tstop() called on Kevins-MacBook-Pro.local at Fri Apr 10 18:02:15 2015
Module time:
	user time   =       0.19 seconds =       0.00 minutes
	system time =       0.01 seconds =       0.00 minutes
	total time  =          0 seconds =       0.00 minutes
Total time:
	user time   =       0.20 seconds =       0.00 minutes
	system time =       0.01 seconds =       0.00 minutes
	total time  =          0 seconds =       0.00 minutes

*** tstart() called on Kevins-MacBook-Pro.local
*** at Fri Apr 10 18:02:15 2015


         ---------------------------------------------------------
                                   SCF
            by Justin Turney, Rob Parrish, and Andy Simmonett
                              RHF Reference
                        1 Threads,    256 MiB Core
         ---------------------------------------------------------

  ==> Geometry <==

    Molecular point group: c1
    Full point group: D_inf_h

    Geometry (in Angstrom), charge = 0, multiplicity = 1:

       Center              X                  Y                   Z       
    ------------   -----------------  -----------------  -----------------
           H          0.000000000000     0.000000000000    -1.300000000000
           H          0.000000000000     0.000000000000     1.300000000000

  Running in c1 symmetry.

  Rotational constants: A = ************  B =      4.94874  C =      4.94874 [cm^-1]
  Rotational constants: A = ************  B = 148359.49785  C = 148359.49785 [MHz]
  Nuclear repulsion =    0.203529695611538

  Charge       = 0
  Multiplicity = 1
  Electrons    = 2
  Nalpha       = 1
  Nbeta        = 1

  ==> Algorithm <==

  SCF Algorithm Type is PK.
  DIIS enabled.
  MOM disabled.
  Fractional occupation disabled.
  Guess Type is CORE.
  Energy threshold   = 1.00e-08
  Density threshold  = 1.00e-08
  Integral threshold = 0.00e+00

  ==> Primary Basis <==

  Basis Set: CC-PVDZ
    Number of shells: 6
    Number of basis function: 10
    Number of Cartesian functions: 10
    Spherical Harmonics?: true
    Max angular momentum: 1

  ==> Pre-Iterations <==

   -------------------------------------------------------
    Irrep   Nso     Nmo     Nalpha   Nbeta   Ndocc  Nsocc
   -------------------------------------------------------
     A         10      10       0       0       0       0
   -------------------------------------------------------
    Total      10      10       1       1       1       0
   -------------------------------------------------------

  Starting with a DF guess...

 OEINTS: Overlap, kinetic, potential, dipole, and quadrupole integrals
         stored in file 35.

  ==> Integral Setup <==

  ==> DFJK: Density-Fitted J/K Matrices <==

    J tasked:                  Yes
    K tasked:                  Yes
    wK tasked:                  No
    OpenMP threads:              1
    Integrals threads:           1
    Memory (MB):               183
    Algorithm:                Core
    Integral Cache:           NONE
    Schwarz Cutoff:          1E-12
    Fitting Condition:       1E-12

   => Auxiliary Basis Set <=

  Basis Set: 
    Number of shells: 18
    Number of basis function: 46
    Number of Cartesian functions: 50
    Spherical Harmonics?: true
    Max angular momentum: 2

  Minimum eigenvalue in the overlap matrix is 2.5136279051E-01.
  Using Symmetric Orthogonalization.
  SCF Guess: Core (One-Electron) Hamiltonian.

  ==> Iterations <==

                           Total Energy        Delta E     RMS |[F,P]|

   @DF-RHF iter   1:    -0.83747698787582   -8.37477e-01   1.25258e-02 
   @DF-RHF iter   2:    -0.85578526802137   -1.83083e-02   2.15580e-03 DIIS
   @DF-RHF iter   3:    -0.85635634314133   -5.71075e-04   3.33121e-05 DIIS
   @DF-RHF iter   4:    -0.85635644111475   -9.79734e-08   8.23463e-07 DIIS
   @DF-RHF iter   5:    -0.85635644116961   -5.48535e-11   2.17912e-10 DIIS

  DF guess converged.

  ==> Integral Setup <==

 MINTS: Wrapper to libmints.
   by Justin Turney

   Calculation information:
      Number of atoms:                   2
      Number of AO shells:               6
      Number of SO shells:               6
      Number of primitives:             10
      Number of atomic orbitals:        10
      Number of basis functions:        10

      Number of irreps:                  1
      Integral cutoff                 0.00e+00
      Number of functions per irrep: [  10 ]

 OEINTS: Overlap, kinetic, potential, dipole, and quadrupole integrals
         stored in file 35.

      Computing two-electron integrals...done
      Computed 512 non-zero two-electron integrals.
        Stored in file 33.

	Batch   1 pq = [       0,      55] index = [             0,1540]
  ==> DiskJK: Disk-Based J/K Matrices <==

    J tasked:                  Yes
    K tasked:                  Yes
    wK tasked:                  No
    Memory (MB):               183
    Schwarz Cutoff:          1E-12

   @RHF iter   6:    -0.85633155565057    2.48855e-05   6.84039e-06 DIIS
   @RHF iter   7:    -0.85633156071701   -5.06644e-09   1.14891e-06 DIIS
   @RHF iter   8:    -0.85633156087287   -1.55862e-10   2.54922e-08 DIIS
   @RHF iter   9:    -0.85633156087293   -5.88418e-14   2.90178e-13 DIIS

  ==> Post-Iterations <==

    Orbital Energies (a.u.)
    -----------------------

    Doubly Occupied:                                                      

       1A     -0.343446  

    Virtual:                                                              

       2A     -0.092033     3A      0.616458     4A      0.671305  
       5A      1.459354     6A      1.462934     7A      1.462934  
       8A      1.468558     9A      1.468558    10A      1.507533  

    Final Occupation by Irrep:
              A 
    DOCC [     1 ]

  Energy converged.

  @RHF Final Energy:    -0.85633156087293

   => Energetics <=

    Nuclear Repulsion Energy =              0.2035296956115385
    One-Electron Energy =                  -1.4328295330554570
    Two-Electron Energy =                   0.3729682765709882
    DFT Exchange-Correlation Energy =       0.0000000000000000
    Empirical Dispersion Energy =           0.0000000000000000
    PCM Polarization Energy =               0.0000000000000000
    EFP Energy =                            0.0000000000000000
    Total Energy =                         -0.8563315608729303

    Alert: EFP and PCM quantities not currently incorporated into SCF psivars.

Properties will be evaluated at   0.000000,   0.000000,   0.000000 Bohr
  ==> Properties <==


Properties computed using the SCF density matrix

  Nuclear Dipole Moment: (a.u.)
     X:     0.0000      Y:     0.0000      Z:     0.0000

  Electronic Dipole Moment: (a.u.)
     X:    -0.0000      Y:     0.0000      Z:    -0.0000

  Dipole Moment: (a.u.)
     X:    -0.0000      Y:     0.0000      Z:    -0.0000     Total:     0.0000

  Dipole Moment: (Debye)
     X:    -0.0000      Y:     0.0000      Z:    -0.0000     Total:     0.0000


  Saving occupied orbitals to File 180.

*** tstop() called on Kevins-MacBook-Pro.local at Fri Apr 10 18:02:15 2015
Module time:
	user time   =       0.18 seconds =       0.00 minutes
	system time =       0.01 seconds =       0.00 minutes
	total time  =          0 seconds =       0.00 minutes
Total time:
	user time   =       0.39 seconds =       0.01 minutes
	system time =       0.02 seconds =       0.00 minutes
	total time  =          0 seconds =       0.00 minutes
Reading options from the SCF block
Calling plugin scf.so.
    Molecular point group: c1
    Full point group: D_inf_h

    Geometry (in Angstrom), charge = 0, multiplicity = 1:

       Center              X                  Y                   Z       
    ------------   -----------------  -----------------  -----------------
           H          0.000000000000     0.000000000000    -1.300000000000
           H          0.000000000000     0.000000000000     1.300000000000


    Nuclear repulsion energy:       0.20352970

  ## Overlap (Symmetry 0) ##
  Irrep: 1 Size: 10 x 10

                 1                   2                   3                   4                   5

    1     1.00000000000000     0.68486025149275     0.00000000000000     0.00000000000000     0.00000000000000
    2     0.68486025149275     1.00000000000000     0.00000000000000     0.00000000000000     0.00000000000000
    3     0.00000000000000     0.00000000000000     1.00000000000000     0.00000000000000     0.00000000000000
    4     0.00000000000000     0.00000000000000     0.00000000000000     1.00000000000000     0.00000000000000
    5     0.00000000000000     0.00000000000000     0.00000000000000     0.00000000000000     1.00000000000000
    6     0.00313425369719     0.06501587965571     0.00317252653404     0.00000000000000     0.00000000000000
    7     0.06501587965571     0.22933664152634     0.05681598845873     0.00000000000000     0.00000000000000
    8    -0.00317252653404    -0.05681598845873    -0.00255770598908     0.00000000000000     0.00000000000000
    9     0.00000000000000     0.00000000000000     0.00000000000000     0.00015454351802     0.00000000000000
   10     0.00000000000000     0.00000000000000     0.00000000000000     0.00000000000000     0.00015454351802

                 6                   7                   8                   9                  10

    1     0.00313425369719     0.06501587965571    -0.00317252653404     0.00000000000000     0.00000000000000
    2     0.06501587965571     0.22933664152634    -0.05681598845873     0.00000000000000     0.00000000000000
    3     0.00317252653404     0.05681598845873    -0.00255770598908     0.00000000000000     0.00000000000000
    4     0.00000000000000     0.00000000000000     0.00000000000000     0.00015454351802     0.00000000000000
    5     0.00000000000000     0.00000000000000     0.00000000000000     0.00000000000000     0.00015454351802
    6     1.00000000000000     0.68486025149275    -0.00000000000000     0.00000000000000     0.00000000000000
    7     0.68486025149275     1.00000000000000    -0.00000000000000     0.00000000000000     0.00000000000000
    8    -0.00000000000000    -0.00000000000000     1.00000000000000     0.00000000000000     0.00000000000000
    9     0.00000000000000     0.00000000000000     0.00000000000000     1.00000000000000     0.00000000000000
   10     0.00000000000000     0.00000000000000     0.00000000000000     0.00000000000000     1.00000000000000



  ## Kinetic (Symmetry 0) ##
  Irrep: 1 Size: 10 x 10

                 1                   2                   3                   4                   5

    1     0.96945722711242     0.20123413106538    -0.00000000000000     0.00000000000000     0.00000000000000
    2     0.20123413106538     0.18300000000000     0.00000000000000     0.00000000000000     0.00000000000000
    3    -0.00000000000000     0.00000000000000     1.81750000000000     0.00000000000000     0.00000000000000
    4     0.00000000000000     0.00000000000000     0.00000000000000     1.81750000000000     0.00000000000000
    5     0.00000000000000     0.00000000000000     0.00000000000000     0.00000000000000     1.81750000000000
    6    -0.00553637945932    -0.01077090865322    -0.00731048880558     0.00000000000000     0.00000000000000
    7    -0.01077090865322     0.00076762525050    -0.00026019009697     0.00000000000000     0.00000000000000
    8     0.00731048880558     0.00026019009697     0.00969632226965     0.00000000000000     0.00000000000000
    9     0.00000000000000     0.00000000000000     0.00000000000000    -0.00070501985183     0.00000000000000
   10     0.00000000000000     0.00000000000000     0.00000000000000     0.00000000000000    -0.00070501985183

                 6                   7                   8                   9                  10

    1    -0.00553637945932    -0.01077090865322     0.00731048880558     0.00000000000000     0.00000000000000
    2    -0.01077090865322     0.00076762525050     0.00026019009697     0.00000000000000     0.00000000000000
    3    -0.00731048880558    -0.00026019009697     0.00969632226965     0.00000000000000     0.00000000000000
    4     0.00000000000000     0.00000000000000     0.00000000000000    -0.00070501985183     0.00000000000000
    5     0.00000000000000     0.00000000000000     0.00000000000000     0.00000000000000    -0.00070501985183
    6     0.96945722711242     0.20123413106538     0.00000000000000     0.00000000000000     0.00000000000000
    7     0.20123413106538     0.18300000000000    -0.00000000000000     0.00000000000000     0.00000000000000
    8     0.00000000000000    -0.00000000000000     1.81750000000000     0.00000000000000     0.00000000000000
    9     0.00000000000000     0.00000000000000     0.00000000000000     1.81750000000000     0.00000000000000
   10     0.00000000000000     0.00000000000000     0.00000000000000     0.00000000000000     1.81750000000000



  ## Potential (Symmetry 0) ##
  Irrep: 1 Size: 10 x 10

                 1                   2                   3                   4                   5

    1    -1.58139148029318    -0.78909658331191    -0.02606108081463     0.00000000000000     0.00000000000000
    2    -0.78909658331191    -0.76078606706514    -0.02444664228670     0.00000000000000     0.00000000000000
    3    -0.02606108081463    -0.02444664228670    -1.11640910021613     0.00000000000000     0.00000000000000
    4     0.00000000000000     0.00000000000000     0.00000000000000    -1.10771128450122     0.00000000000000
    5     0.00000000000000     0.00000000000000     0.00000000000000     0.00000000000000    -1.10771128450122
    6    -0.00257025141563    -0.06660140074595    -0.00261379067015     0.00000000000000     0.00000000000000
    7    -0.06660140074595    -0.17062489291953    -0.05250960306780     0.00000000000000     0.00000000000000
    8     0.00261379067015     0.05250960306780     0.00206795297858     0.00000000000000     0.00000000000000
    9     0.00000000000000     0.00000000000000     0.00000000000000    -0.00011864814491     0.00000000000000
   10     0.00000000000000     0.00000000000000     0.00000000000000     0.00000000000000    -0.00011864814491

                 6                   7                   8                   9                  10

    1    -0.00257025141563    -0.06660140074595     0.00261379067015     0.00000000000000     0.00000000000000
    2    -0.06660140074595    -0.17062489291953     0.05250960306780     0.00000000000000     0.00000000000000
    3    -0.00261379067015    -0.05250960306780     0.00206795297858     0.00000000000000     0.00000000000000
    4     0.00000000000000     0.00000000000000     0.00000000000000    -0.00011864814491     0.00000000000000
    5     0.00000000000000     0.00000000000000     0.00000000000000     0.00000000000000    -0.00011864814491
    6    -1.58139148029318    -0.78909658331191     0.02606108081463     0.00000000000000     0.00000000000000
    7    -0.78909658331191    -0.76078606706514     0.02444664228670     0.00000000000000     0.00000000000000
    8     0.02606108081463     0.02444664228670    -1.11640910021613     0.00000000000000     0.00000000000000
    9     0.00000000000000     0.00000000000000     0.00000000000000    -1.10771128450122     0.00000000000000
   10     0.00000000000000     0.00000000000000     0.00000000000000     0.00000000000000    -1.10771128450122



  ## One Electron Ints (Symmetry 0) ##
  Irrep: 1 Size: 10 x 10

                 1                   2                   3                   4                   5

    1    -0.61193425318075    -0.58786245224653    -0.02606108081463     0.00000000000000     0.00000000000000
    2    -0.58786245224653    -0.57778606706514    -0.02444664228670     0.00000000000000     0.00000000000000
    3    -0.02606108081463    -0.02444664228670     0.70109089978387     0.00000000000000     0.00000000000000
    4     0.00000000000000     0.00000000000000     0.00000000000000     0.70978871549878     0.00000000000000
    5     0.00000000000000     0.00000000000000     0.00000000000000     0.00000000000000     0.70978871549878
    6    -0.00810663087495    -0.07737230939916    -0.00992427947572     0.00000000000000     0.00000000000000
    7    -0.07737230939916    -0.16985726766904    -0.05276979316477     0.00000000000000     0.00000000000000
    8     0.00992427947572     0.05276979316477     0.01176427524823     0.00000000000000     0.00000000000000
    9     0.00000000000000     0.00000000000000     0.00000000000000    -0.00082366799674     0.00000000000000
   10     0.00000000000000     0.00000000000000     0.00000000000000     0.00000000000000    -0.00082366799674

                 6                   7                   8                   9                  10

    1    -0.00810663087495    -0.07737230939916     0.00992427947572     0.00000000000000     0.00000000000000
    2    -0.07737230939916    -0.16985726766904     0.05276979316477     0.00000000000000     0.00000000000000
    3    -0.00992427947572    -0.05276979316477     0.01176427524823     0.00000000000000     0.00000000000000
    4     0.00000000000000     0.00000000000000     0.00000000000000    -0.00082366799674     0.00000000000000
    5     0.00000000000000     0.00000000000000     0.00000000000000     0.00000000000000    -0.00082366799674
    6    -0.61193425318075    -0.58786245224653     0.02606108081463     0.00000000000000     0.00000000000000
    7    -0.58786245224653    -0.57778606706514     0.02444664228670     0.00000000000000     0.00000000000000
    8     0.02606108081463     0.02444664228670     0.70109089978387     0.00000000000000     0.00000000000000
    9     0.00000000000000     0.00000000000000     0.00000000000000     0.70978871549878     0.00000000000000
   10     0.00000000000000     0.00000000000000     0.00000000000000     0.00000000000000     0.70978871549878




	There are 0 unique integrals

  ## Fock (Symmetry 0) ##
  Irrep: 1 Size: 10 x 10

                 1                   2                   3                   4                   5

    1    -0.37898093991762    -0.35256801940910    -0.02691851621886    -0.00000000000000     0.00000000000000
    2    -0.35256801940910    -0.30865199917050    -0.00072242572795     0.00000000000000     0.00000000000000
    3    -0.02691851621886    -0.00072242572795     0.70743576369072     0.00000000000000     0.00000000000000
    4    -0.00000000000000     0.00000000000000     0.00000000000000     0.70978885974371     0.00000000000000
    5     0.00000000000000     0.00000000000000     0.00000000000000     0.00000000000000     0.70978885974371
    6     0.00252012797510     0.01095763664345     0.03810921065187    -0.00000000000000     0.00000000000000
    7     0.01095763664345    -0.07685916557776    -0.08381764556458    -0.00000000000000     0.00000000000000
    8    -0.03810921065187     0.08381764556458     0.01413648323351     0.00000000000000     0.00000000000000
    9    -0.00000000000000     0.00000000000000    -0.00000000000000    -0.00093336126418     0.00000000000000
   10     0.00000000000000     0.00000000000000     0.00000000000000     0.00000000000000    -0.00093336126418

                 6                   7                   8                   9                  10

    1     0.00252012797510     0.01095763664345    -0.03810921065187    -0.00000000000000     0.00000000000000
    2     0.01095763664345    -0.07685916557776     0.08381764556458     0.00000000000000     0.00000000000000
    3     0.03810921065187    -0.08381764556458     0.01413648323351    -0.00000000000000     0.00000000000000
    4    -0.00000000000000    -0.00000000000000     0.00000000000000    -0.00093336126418     0.00000000000000
    5     0.00000000000000     0.00000000000000     0.00000000000000     0.00000000000000    -0.00093336126418
    6    -0.37898093991762    -0.35256801940910     0.02691851621886    -0.00000000000000     0.00000000000000
    7    -0.35256801940910    -0.30865199917050     0.00072242572795    -0.00000000000000     0.00000000000000
    8     0.02691851621886     0.00072242572795     0.70743576369073     0.00000000000000     0.00000000000000
    9    -0.00000000000000    -0.00000000000000     0.00000000000000     0.70978885974371     0.00000000000000
   10     0.00000000000000     0.00000000000000     0.00000000000000     0.00000000000000     0.70978885974371



  ## C (Symmetry 0) ##
  Irrep: 1 Size: 10 x 10

                 1                   2                   3                   4                   5

    1    -0.34968181068977    -0.41271636561462    -0.03398654331048    -0.03965753793135     0.02005259832738
    2    -0.46091364448536    -0.33058847678691     0.01455595878765     0.13436264054689    -0.05897187972977
    3     0.50239644546119    -0.49440457990468    -0.06387997893611     0.03143293244644    -0.01379737711485
    4     0.44160817641880    -0.54130572741651     0.10940903501324    -0.00005456163266     0.00000291388065
    5    -0.02738960736073     0.06335285780411    -0.70367704658912     0.00000000000001     0.00000000000000
    6    -0.01433063909787    -0.02987118877240    -0.00100394400889     0.44408744681667    -0.87579223257214
    7     0.05359600232501     0.07669990156396     0.00105938329350    -0.96133582740586     0.29675553078442
    8    -0.01203794875221    -0.00917847753643     0.00049896322268    -0.03147676678253    -0.70907280893505
    9    -0.00003412384079     0.00004182764597    -0.00000845422863     0.70610056037219    -0.03770951601817
   10     0.06832540466323    -0.08546487593975    -0.69853600847623    -0.00000000000000     0.00000000000000

                 6                   7                   8                   9                  10

    1    -0.92287428156091    -0.88011235476061     0.03286820877678    -0.04127602797563    -0.01025319309896
    2     0.98691255949926     0.85000651549277    -0.01173115887314     0.13759840325402     0.00161690798266
    3     0.51192298645974    -0.48663639159196     0.06389856581631     0.03156170781988    -0.01138609283023
    4    -0.44160817641880     0.54130572741652     0.10940903501324     0.00005456163266    -0.00000291388065
    5    -0.02737904843928     0.06333965051791     0.70378500920581    -0.00000000000000     0.00000000000000
    6     0.04754124805382     0.02058075078579     0.00112465994914     0.44431708379007    -0.87149234191419
    7    -0.15273346380348    -0.09154649002686    -0.00146194504895    -0.96199136604814     0.28448074575082
    8     0.03498540592314     0.02916558399328    -0.00040721770247     0.04408531406614     0.70580686240507
    9     0.00003412384079    -0.00004182764597    -0.00000845422864    -0.70610056037240     0.03770951601811
   10    -0.06832117259283     0.08545508618672    -0.69864476554568     0.00000000000000    -0.00000000000000




 In Bisection function HOMO = -0.725  LUMO =  0.738

 0.00677 = (-0.72457 + 0.73810)/2.0
 sum -  nocc_ = 2.00000000
 On Iteration in Bisection 0
 a: 2.00000  b:-0.50000

 -0.35890 = (-0.72457 + 0.00677)/2.0
 sum -  nocc_ = 1.00000000
 On Iteration in Bisection 1
 a: 1.00000  b:-0.50000

 -0.54173 = (-0.72457 + -0.35890)/2.0
 sum -  nocc_ = 1.00000000
 On Iteration in Bisection 2
 a: 1.00000  b:-0.50000

 -0.63315 = (-0.72457 + -0.54173)/2.0
 sum -  nocc_ = 1.00000000
 On Iteration in Bisection 3
 a: 1.00000  b:-0.50000

 -0.67886 = (-0.72457 + -0.63315)/2.0
 sum -  nocc_ = 0.03451559
 On Iteration in Bisection 4
 a: 0.03452  b:-0.50000

 -0.70171 = (-0.72457 + -0.67886)/2.0
 sum -  nocc_ = 0.00000000
 ef = -0.70171 sum = 1.00000 

 Iter: 0  T:      100.000  val:-0.701711  sumni 0.00000
 ne = 1.0000

Nuc Replusion =       0.203529695612
 1st iteration =      -0.080294415655
 In Bisection function HOMO = -0.334  LUMO =  1.933

 0.79950 = (-0.33444 + 1.93345)/2.0
 sum -  nocc_ = 2.00000000
 On Iteration in Bisection 0
 a: 2.00000  b:-0.50000

 0.23253 = (-0.33444 + 0.79950)/2.0
 sum -  nocc_ = 1.00000000
 On Iteration in Bisection 1
 a: 1.00000  b:-0.50000

 -0.05096 = (-0.33444 + 0.23253)/2.0
 sum -  nocc_ = 0.00000000
 ef = -0.05096 sum = 1.00000 

 Iter: 0  T:      100.000  val:-0.050956  sumni 0.00000
 ne = 1.0000

 iter:1  failiter:1  energy:     -1.036529501689  total:     -0.832999806078  error:     -0.180197940816
 In Bisection function HOMO = -0.306  LUMO =  1.907

 0.80035 = (-0.30592 + 1.90661)/2.0
 sum -  nocc_ = 2.00000000
 On Iteration in Bisection 0
 a: 2.00000  b:-0.50000

 0.24721 = (-0.30592 + 0.80035)/2.0
 sum -  nocc_ = 1.00000000
 On Iteration in Bisection 1
 a: 1.00000  b:-0.50000

 -0.02936 = (-0.30592 + 0.24721)/2.0
 sum -  nocc_ = 1.00000000
 On Iteration in Bisection 2
 a: 1.00000  b:-0.50000

 -0.16764 = (-0.30592 + -0.02936)/2.0
 sum -  nocc_ = 0.00000000
 ef = -0.16764 sum = 1.00000 

 Iter: 1  T:      100.000  val:-0.167639  sumni 0.00000
 ne = 1.0000

 iter:2  failiter:2  energy:     -1.012752110640  total:     -0.809222415029  error:      0.023777391049
 In Bisection function HOMO = -0.312  LUMO =  1.881

 0.78484 = (-0.31169 + 1.88137)/2.0
 sum -  nocc_ = 2.00000000
 On Iteration in Bisection 0
 a: 2.00000  b:-0.50000

 0.23658 = (-0.31169 + 0.78484)/2.0
 sum -  nocc_ = 1.00000000
 On Iteration in Bisection 1
 a: 1.00000  b:-0.50000

 -0.03755 = (-0.31169 + 0.23658)/2.0
 sum -  nocc_ = 1.00000000
 On Iteration in Bisection 2
 a: 1.00000  b:-0.50000

 -0.17462 = (-0.31169 + -0.03755)/2.0
 sum -  nocc_ = 0.00000000
 ef = -0.17462 sum = 1.00000 

 Iter: 2  T:      100.000  val:-0.174619  sumni 0.00000
 ne = 1.0000

 iter:3  failiter:3  energy:     -1.022982219025  total:     -0.819452523414  error:     -0.010230108385
 In Bisection function HOMO = -0.317  LUMO =  1.838

 0.76043 = (-0.31708 + 1.83794)/2.0
 sum -  nocc_ = 2.00000000
 On Iteration in Bisection 0
 a: 2.00000  b:-0.50000

 0.22167 = (-0.31708 + 0.76043)/2.0
 sum -  nocc_ = 1.00000000
 On Iteration in Bisection 1
 a: 1.00000  b:-0.50000

 -0.04771 = (-0.31708 + 0.22167)/2.0
 sum -  nocc_ = 1.00000000
 On Iteration in Bisection 2
 a: 1.00000  b:-0.50000

 -0.18240 = (-0.31708 + -0.04771)/2.0
 sum -  nocc_ = 0.00000000
 ef = -0.18240 sum = 1.00000 

 Iter: 3  T:      100.000  val:-0.182396  sumni 0.00000
 ne = 1.0000

 iter:4  failiter:4  energy:     -1.031557632210  total:     -0.828027936598  error:     -0.008575413185
 In Bisection function HOMO = -0.323  LUMO =  1.781

 0.72868 = (-0.32334 + 1.78069)/2.0
 sum -  nocc_ = 2.00000000
 On Iteration in Bisection 0
 a: 2.00000  b:-0.50000

 0.20267 = (-0.32334 + 0.72868)/2.0
 sum -  nocc_ = 1.00000000
 On Iteration in Bisection 1
 a: 1.00000  b:-0.50000

 -0.06033 = (-0.32334 + 0.20267)/2.0
 sum -  nocc_ = 1.00000000
 On Iteration in Bisection 2
 a: 1.00000  b:-0.50000

 -0.19184 = (-0.32334 + -0.06033)/2.0
 sum -  nocc_ = 0.00000000
 ef = -0.19184 sum = 1.00000 

 Iter: 4  T:      100.000  val:-0.191835  sumni 0.00000
 ne = 1.0000

 iter:5  failiter:5  energy:     -1.039636091409  total:     -0.836106395797  error:     -0.008078459199
 In Bisection function HOMO = -0.330  LUMO =  1.717

 0.69360 = (-0.32977 + 1.71698)/2.0
 sum -  nocc_ = 2.00000000
 On Iteration in Bisection 0
 a: 2.00000  b:-0.50000

 0.18191 = (-0.32977 + 0.69360)/2.0
 sum -  nocc_ = 1.00000000
 On Iteration in Bisection 1
 a: 1.00000  b:-0.50000

 -0.07393 = (-0.32977 + 0.18191)/2.0
 sum -  nocc_ = 1.00000000
 On Iteration in Bisection 2
 a: 1.00000  b:-0.50000

 -0.20185 = (-0.32977 + -0.07393)/2.0
 sum -  nocc_ = 0.00000000
 ef = -0.20185 sum = 1.00000 

 Iter: 5  T:      100.000  val:-0.201852  sumni 0.00000
 ne = 1.0000

 iter:6  failiter:6  energy:     -1.046749256573  total:     -0.843219560961  error:     -0.007113165164
 In Bisection function HOMO = -0.335  LUMO =  1.656

 0.66021 = (-0.33527 + 1.65570)/2.0
 sum -  nocc_ = 2.00000000
 On Iteration in Bisection 0
 a: 2.00000  b:-0.50000

 0.16247 = (-0.33527 + 0.66021)/2.0
 sum -  nocc_ = 1.00000000
 On Iteration in Bisection 1
 a: 1.00000  b:-0.50000

 -0.08640 = (-0.33527 + 0.16247)/2.0
 sum -  nocc_ = 1.00000000
 On Iteration in Bisection 2
 a: 1.00000  b:-0.50000

 -0.21084 = (-0.33527 + -0.08640)/2.0
 sum -  nocc_ = 0.00000000
 ef = -0.21084 sum = 1.00000 

 Iter: 6  T:      100.000  val:-0.210835  sumni 0.00000
 ne = 1.0000

 iter:7  failiter:7  energy:     -1.052258317858  total:     -0.848728622246  error:     -0.005509061285
 In Bisection function HOMO = -0.339  LUMO =  1.605

 0.63273 = (-0.33910 + 1.60456)/2.0
 sum -  nocc_ = 2.00000000
 On Iteration in Bisection 0
 a: 2.00000  b:-0.50000

 0.14682 = (-0.33910 + 0.63273)/2.0
 sum -  nocc_ = 1.00000000
 On Iteration in Bisection 1
 a: 1.00000  b:-0.50000

 -0.09614 = (-0.33910 + 0.14682)/2.0
 sum -  nocc_ = 0.00005331
 On Iteration in Bisection 2
 a: 0.00005  b:-0.50000

 -0.21762 = (-0.33910 + -0.09614)/2.0
 sum -  nocc_ = 0.00000000
 ef = -0.21762 sum = 1.00000 

 Iter: 7  T:      100.000  val:-0.217618  sumni 0.00000
 ne = 1.0000

 iter:8  failiter:8  energy:     -1.055889495574  total:     -0.852359799962  error:     -0.003631177716
 In Bisection function HOMO = -0.341  LUMO =  1.567

 0.61270 = (-0.34133 + 1.56673)/2.0
 sum -  nocc_ = 2.00000000
 On Iteration in Bisection 0
 a: 2.00000  b:-0.50000

 0.13569 = (-0.34133 + 0.61270)/2.0
 sum -  nocc_ = 1.00000000
 On Iteration in Bisection 1
 a: 1.00000  b:-0.50000

 -0.10282 = (-0.34133 + 0.13569)/2.0
 sum -  nocc_ = 0.00000000
 ef = -0.10282 sum = 1.00000 

 Iter: 8  T:      100.000  val:-0.102821  sumni 0.00000
 ne = 1.0000

 iter:9  failiter:9  energy:     -1.057947461100  total:     -0.854417765489  error:     -0.002057965526
 In Bisection function HOMO = -0.342  LUMO =  1.541

 0.59939 = (-0.34247 + 1.54125)/2.0
 sum -  nocc_ = 1.98165042
 On Iteration in Bisection 0
 a: 1.98165  b:-0.50000

 0.12846 = (-0.34247 + 0.59939)/2.0
 sum -  nocc_ = 1.00000000
 On Iteration in Bisection 1
 a: 1.00000  b:-0.50000

 -0.10701 = (-0.34247 + 0.12846)/2.0
 sum -  nocc_ = 0.00000000
 ef = -0.10701 sum = 1.00000 

 Iter: 9  T:      100.000  val:-0.107008  sumni 0.00000
 ne = 1.0000

 iter:10  failiter:10  energy:     -1.058987500838  total:     -0.855457805227  error:     -0.001040039738
 In Bisection function HOMO = -0.343  LUMO =  1.525

 0.59120 = (-0.34302 + 1.52541)/2.0
 sum -  nocc_ = 1.00000000
 On Iteration in Bisection 0
 a: 1.00000  b:-0.50000

 0.12409 = (-0.34302 + 0.59120)/2.0
 sum -  nocc_ = 1.00000000
 On Iteration in Bisection 1
 a: 1.00000  b:-0.50000

 -0.10946 = (-0.34302 + 0.12409)/2.0
 sum -  nocc_ = 0.00000000
 ef = -0.10946 sum = 1.00000 

 Iter: 10  T:      100.000  val:-0.109462  sumni 0.00000
 ne = 1.0000

 iter:11  failiter:11  energy:     -1.059475090841  total:     -0.855945395229  error:     -0.000487590003
 In Bisection function HOMO = -0.343  LUMO =  1.516

 0.58654 = (-0.34326 + 1.51635)/2.0
 sum -  nocc_ = 1.00000000
 On Iteration in Bisection 0
 a: 1.00000  b:-0.50000

 0.12164 = (-0.34326 + 0.58654)/2.0
 sum -  nocc_ = 1.00000000
 On Iteration in Bisection 1
 a: 1.00000  b:-0.50000

 -0.11081 = (-0.34326 + 0.12164)/2.0
 sum -  nocc_ = 0.00000000
 ef = -0.11081 sum = 1.00000 

 Iter: 11  T:      100.000  val:-0.110808  sumni 0.00000
 ne = 1.0000

 iter:12  failiter:12  energy:     -1.059693683360  total:     -0.856163987749  error:     -0.000218592519
 In Bisection function HOMO = -0.343  LUMO =  1.512

 0.58413 = (-0.34337 + 1.51162)/2.0
 sum -  nocc_ = 1.00000000
 On Iteration in Bisection 0
 a: 1.00000  b:-0.50000

 0.12038 = (-0.34337 + 0.58413)/2.0
 sum -  nocc_ = 1.00000000
 On Iteration in Bisection 1
 a: 1.00000  b:-0.50000

 -0.11149 = (-0.34337 + 0.12038)/2.0
 sum -  nocc_ = 0.00000000
 ef = -0.11149 sum = 1.00000 

 Iter: 12  T:      100.000  val:-0.111493  sumni 0.00000
 ne = 1.0000

 iter:13  failiter:13  energy:     -1.059789252942  total:     -0.856259557330  error:     -0.000095569582
 In Bisection function HOMO = -0.343  LUMO =  1.509

 0.58297 = (-0.34341 + 1.50935)/2.0
 sum -  nocc_ = 1.00000000
 On Iteration in Bisection 0
 a: 1.00000  b:-0.50000

 0.11978 = (-0.34341 + 0.58297)/2.0
 sum -  nocc_ = 1.00000000
 On Iteration in Bisection 1
 a: 1.00000  b:-0.50000

 -0.11182 = (-0.34341 + 0.11978)/2.0
 sum -  nocc_ = 0.00000000
 ef = -0.11182 sum = 1.00000 

 Iter: 13  T:      100.000  val:-0.111817  sumni 0.00000
 ne = 1.0000

 iter:14  failiter:14  energy:     -1.059830475903  total:     -0.856300780291  error:     -0.000041222961
 In Bisection function HOMO = -0.343  LUMO =  1.508

 0.58244 = (-0.34343 + 1.50832)/2.0
 sum -  nocc_ = 1.00000000
 On Iteration in Bisection 0
 a: 1.00000  b:-0.50000

 0.11951 = (-0.34343 + 0.58244)/2.0
 sum -  nocc_ = 1.00000000
 On Iteration in Bisection 1
 a: 1.00000  b:-0.50000

 -0.11196 = (-0.34343 + 0.11951)/2.0
 sum -  nocc_ = 0.00000000
 ef = -0.11196 sum = 1.00000 

 Iter: 14  T:      100.000  val:-0.111963  sumni 0.00000
 ne = 1.0000

 iter:15  failiter:15  energy:     -1.059848132271  total:     -0.856318436660  error:     -0.000017656368
 In Bisection function HOMO = -0.343  LUMO =  1.508

 0.58222 = (-0.34344 + 1.50787)/2.0
 sum -  nocc_ = 1.00000000
 On Iteration in Bisection 0
 a: 1.00000  b:-0.50000

 0.11939 = (-0.34344 + 0.58222)/2.0
 sum -  nocc_ = 1.00000000
 On Iteration in Bisection 1
 a: 1.00000  b:-0.50000

 -0.11203 = (-0.34344 + 0.11939)/2.0
 sum -  nocc_ = 0.00000000
 ef = -0.11203 sum = 1.00000 

 Iter: 15  T:      100.000  val:-0.112026  sumni 0.00000
 ne = 1.0000

 iter:16  failiter:16  energy:     -1.059855667762  total:     -0.856325972151  error:     -0.000007535491
 In Bisection function HOMO = -0.343  LUMO =  1.508

 0.58212 = (-0.34344 + 1.50768)/2.0
 sum -  nocc_ = 1.00000000
 On Iteration in Bisection 0
 a: 1.00000  b:-0.50000

 0.11934 = (-0.34344 + 0.58212)/2.0
 sum -  nocc_ = 1.00000000
 On Iteration in Bisection 1
 a: 1.00000  b:-0.50000

 -0.11205 = (-0.34344 + 0.11934)/2.0
 sum -  nocc_ = 0.00000000
 ef = -0.11205 sum = 1.00000 

 Iter: 16  T:      100.000  val:-0.112054  sumni 0.00000
 ne = 1.0000

 iter:17  failiter:17  energy:     -1.059858878105  total:     -0.856329182493  error:     -0.000003210342
 In Bisection function HOMO = -0.343  LUMO =  1.508

 0.58207 = (-0.34345 + 1.50759)/2.0
 sum -  nocc_ = 1.00000000
 On Iteration in Bisection 0
 a: 1.00000  b:-0.50000

 0.11931 = (-0.34345 + 0.58207)/2.0
 sum -  nocc_ = 1.00000000
 On Iteration in Bisection 1
 a: 1.00000  b:-0.50000

 -0.11207 = (-0.34345 + 0.11931)/2.0
 sum -  nocc_ = 0.00000000
 ef = -0.11207 sum = 1.00000 

 Iter: 17  T:      100.000  val:-0.112065  sumni 0.00000
 ne = 1.0000

 iter:18  failiter:18  energy:     -1.059860244624  total:     -0.856330549013  error:     -0.000001366520
 In Bisection function HOMO = -0.343  LUMO =  1.508

 0.58206 = (-0.34345 + 1.50756)/2.0
 sum -  nocc_ = 1.00000000
 On Iteration in Bisection 0
 a: 1.00000  b:-0.50000

 0.11931 = (-0.34345 + 0.58206)/2.0
 sum -  nocc_ = 1.00000000
 On Iteration in Bisection 1
 a: 1.00000  b:-0.50000

 -0.11207 = (-0.34345 + 0.11931)/2.0
 sum -  nocc_ = 0.00000000
 ef = -0.11207 sum = 1.00000 

 Iter: 18  T:      100.000  val:-0.112070  sumni 0.00000
 ne = 1.0000

 iter:19  failiter:19  energy:     -1.059860826058  total:     -0.856331130447  error:     -0.000000581434
 In Bisection function HOMO = -0.343  LUMO =  1.508

 0.58205 = (-0.34345 + 1.50754)/2.0
 sum -  nocc_ = 1.00000000
 On Iteration in Bisection 0
 a: 1.00000  b:-0.50000

 0.11930 = (-0.34345 + 0.58205)/2.0
 sum -  nocc_ = 1.00000000
 On Iteration in Bisection 1
 a: 1.00000  b:-0.50000

 -0.11207 = (-0.34345 + 0.11930)/2.0
 sum -  nocc_ = 0.00000000
 ef = -0.11207 sum = 1.00000 

 Iter: 19  T:      100.000  val:-0.112073  sumni 0.00000
 ne = 1.0000

 iter:20  failiter:20  energy:     -1.059861073401  total:     -0.856331377790  error:     -0.000000247343
 In Bisection function HOMO = -0.343  LUMO =  1.508

 0.58205 = (-0.34345 + 1.50754)/2.0
 sum -  nocc_ = 1.00000000
 On Iteration in Bisection 0
 a: 1.00000  b:-0.50000

 0.11930 = (-0.34345 + 0.58205)/2.0
 sum -  nocc_ = 1.00000000
 On Iteration in Bisection 1
 a: 1.00000  b:-0.50000

 -0.11207 = (-0.34345 + 0.11930)/2.0
 sum -  nocc_ = 0.00000000
 ef = -0.11207 sum = 1.00000 

 Iter: 20  T:      100.000  val:-0.112073  sumni 0.00000
 ne = 1.0000

 iter:21  failiter:21  energy:     -1.059861178612  total:     -0.856331483000  error:     -0.000000105211
 In Bisection function HOMO = -0.343  LUMO =  1.508

 0.58204 = (-0.34345 + 1.50753)/2.0
 sum -  nocc_ = 1.00000000
 On Iteration in Bisection 0
 a: 1.00000  b:-0.50000

 0.11930 = (-0.34345 + 0.58204)/2.0
 sum -  nocc_ = 1.00000000
 On Iteration in Bisection 1
 a: 1.00000  b:-0.50000

 -0.11207 = (-0.34345 + 0.11930)/2.0
 sum -  nocc_ = 0.00000000
 ef = -0.11207 sum = 1.00000 

 Iter: 21  T:      100.000  val:-0.112074  sumni 0.00000
 ne = 1.0000

 iter:22  failiter:22  energy:     -1.059861223363  total:     -0.856331527751  error:     -0.000000044751
 In Bisection function HOMO = -0.343  LUMO =  1.508

 0.58204 = (-0.34345 + 1.50753)/2.0
 sum -  nocc_ = 1.00000000
 On Iteration in Bisection 0
 a: 1.00000  b:-0.50000

 0.11930 = (-0.34345 + 0.58204)/2.0
 sum -  nocc_ = 1.00000000
 On Iteration in Bisection 1
 a: 1.00000  b:-0.50000

 -0.11207 = (-0.34345 + 0.11930)/2.0
 sum -  nocc_ = 0.00000000
 ef = -0.11207 sum = 1.00000 

 Iter: 22  T:      100.000  val:-0.112074  sumni 0.00000
 ne = 1.0000

 iter:23  failiter:23  energy:     -1.059861242397  total:     -0.856331546785  error:     -0.000000019034
 In Bisection function HOMO = -0.343  LUMO =  1.508

 0.58204 = (-0.34345 + 1.50753)/2.0
 sum -  nocc_ = 1.00000000
 On Iteration in Bisection 0
 a: 1.00000  b:-0.50000

 0.11930 = (-0.34345 + 0.58204)/2.0
 sum -  nocc_ = 1.00000000
 On Iteration in Bisection 1
 a: 1.00000  b:-0.50000

 -0.11207 = (-0.34345 + 0.11930)/2.0
 sum -  nocc_ = 0.00000000
 ef = -0.11207 sum = 1.00000 

 Iter: 23  T:      100.000  val:-0.112074  sumni 0.00000
 ne = 1.0000

 iter:24  failiter:24  energy:     -1.059861250493  total:     -0.856331554881  error:     -0.000000008096
 In Bisection function HOMO = -0.343  LUMO =  1.508

 0.58204 = (-0.34345 + 1.50753)/2.0
 sum -  nocc_ = 1.00000000
 On Iteration in Bisection 0
 a: 1.00000  b:-0.50000

 0.11930 = (-0.34345 + 0.58204)/2.0
 sum -  nocc_ = 1.00000000
 On Iteration in Bisection 1
 a: 1.00000  b:-0.50000

 -0.11207 = (-0.34345 + 0.11930)/2.0
 sum -  nocc_ = 0.00000000
 ef = -0.11207 sum = 1.00000 

 Iter: 24  T:      100.000  val:-0.112074  sumni 0.00000
 ne = 1.0000

 iter:25  failiter:25  energy:     -1.059861253936  total:     -0.856331558324  error:     -0.000000003443
 In Bisection function HOMO = -0.343  LUMO =  1.508

 0.58204 = (-0.34345 + 1.50753)/2.0
 sum -  nocc_ = 1.00000000
 On Iteration in Bisection 0
 a: 1.00000  b:-0.50000

 0.11930 = (-0.34345 + 0.58204)/2.0
 sum -  nocc_ = 1.00000000
 On Iteration in Bisection 1
 a: 1.00000  b:-0.50000

 -0.11207 = (-0.34345 + 0.11930)/2.0
 sum -  nocc_ = 0.00000000
 ef = -0.11207 sum = 1.00000 

 Iter: 25  T:      100.000  val:-0.112074  sumni 0.00000
 ne = 1.0000

 iter:26  failiter:26  energy:     -1.059861255400  total:     -0.856331559789  error:     -0.000000001465
 In Bisection function HOMO = -0.343  LUMO =  1.508

 0.58204 = (-0.34345 + 1.50753)/2.0
 sum -  nocc_ = 1.00000000
 On Iteration in Bisection 0
 a: 1.00000  b:-0.50000

 0.11930 = (-0.34345 + 0.58204)/2.0
 sum -  nocc_ = 1.00000000
 On Iteration in Bisection 1
 a: 1.00000  b:-0.50000

 -0.11207 = (-0.34345 + 0.11930)/2.0
 sum -  nocc_ = 0.00000000
 ef = -0.11207 sum = 1.00000 

 Iter: 26  T:      100.000  val:-0.112074  sumni 0.00000
 ne = 1.0000

 iter:27  failiter:27  energy:     -1.059861256023  total:     -0.856331560412  error:     -0.000000000623
 In Bisection function HOMO = -0.343  LUMO =  1.508

 0.58204 = (-0.34345 + 1.50753)/2.0
 sum -  nocc_ = 1.00000000
 On Iteration in Bisection 0
 a: 1.00000  b:-0.50000

 0.11930 = (-0.34345 + 0.58204)/2.0
 sum -  nocc_ = 1.00000000
 On Iteration in Bisection 1
 a: 1.00000  b:-0.50000

 -0.11207 = (-0.34345 + 0.11930)/2.0
 sum -  nocc_ = 0.00000000
 ef = -0.11207 sum = 1.00000 

 Iter: 27  T:      100.000  val:-0.112074  sumni 0.00000
 ne = 1.0000

 iter:28  failiter:28  energy:     -1.059861256288  total:     -0.856331560677  error:     -0.000000000265
 In Bisection function HOMO = -0.343  LUMO =  1.508

 0.58204 = (-0.34345 + 1.50753)/2.0
 sum -  nocc_ = 1.00000000
 On Iteration in Bisection 0
 a: 1.00000  b:-0.50000

 0.11930 = (-0.34345 + 0.58204)/2.0
 sum -  nocc_ = 1.00000000
 On Iteration in Bisection 1
 a: 1.00000  b:-0.50000

 -0.11207 = (-0.34345 + 0.11930)/2.0
 sum -  nocc_ = 0.00000000
 ef = -0.11207 sum = 1.00000 

 Iter: 28  T:      100.000  val:-0.112074  sumni 0.00000
 ne = 1.0000

 iter:29  failiter:29  energy:     -1.059861256401  total:     -0.856331560790  error:     -0.000000000113
 In Bisection function HOMO = -0.343  LUMO =  1.508

 0.58204 = (-0.34345 + 1.50753)/2.0
 sum -  nocc_ = 1.00000000
 On Iteration in Bisection 0
 a: 1.00000  b:-0.50000

 0.11930 = (-0.34345 + 0.58204)/2.0
 sum -  nocc_ = 1.00000000
 On Iteration in Bisection 1
 a: 1.00000  b:-0.50000

 -0.11207 = (-0.34345 + 0.11930)/2.0
 sum -  nocc_ = 0.00000000
 ef = -0.11207 sum = 1.00000 

 Iter: 29  T:      100.000  val:-0.112074  sumni 0.00000
 ne = 1.0000

 iter:30  failiter:30  energy:     -1.059861256449  total:     -0.856331560837  error:     -0.000000000048
 In Bisection function HOMO = -0.343  LUMO =  1.508

 0.58204 = (-0.34345 + 1.50753)/2.0
 sum -  nocc_ = 1.00000000
 On Iteration in Bisection 0
 a: 1.00000  b:-0.50000

 0.11930 = (-0.34345 + 0.58204)/2.0
 sum -  nocc_ = 1.00000000
 On Iteration in Bisection 1
 a: 1.00000  b:-0.50000

 -0.11207 = (-0.34345 + 0.11930)/2.0
 sum -  nocc_ = 0.00000000
 ef = -0.11207 sum = 1.00000 

 Iter: 30  T:      100.000  val:-0.112074  sumni 0.00000
 ne = 1.0000

 iter:31  failiter:31  energy:     -1.059861256469  total:     -0.856331560858  error:     -0.000000000020
 In Bisection function HOMO = -0.343  LUMO =  1.508

 0.58204 = (-0.34345 + 1.50753)/2.0
 sum -  nocc_ = 1.00000000
 On Iteration in Bisection 0
 a: 1.00000  b:-0.50000

 0.11930 = (-0.34345 + 0.58204)/2.0
 sum -  nocc_ = 1.00000000
 On Iteration in Bisection 1
 a: 1.00000  b:-0.50000

 -0.11207 = (-0.34345 + 0.11930)/2.0
 sum -  nocc_ = 0.00000000
 ef = -0.11207 sum = 1.00000 

 Iter: 31  T:      100.000  val:-0.112074  sumni 0.00000
 ne = 1.0000

 iter:32  failiter:32  energy:     -1.059861256478  total:     -0.856331560867  error:     -0.000000000009
 In Bisection function HOMO = -0.343  LUMO =  1.508

 0.58204 = (-0.34345 + 1.50753)/2.0
 sum -  nocc_ = 1.00000000
 On Iteration in Bisection 0
 a: 1.00000  b:-0.50000

 0.11930 = (-0.34345 + 0.58204)/2.0
 sum -  nocc_ = 1.00000000
 On Iteration in Bisection 1
 a: 1.00000  b:-0.50000

 -0.11207 = (-0.34345 + 0.11930)/2.0
 sum -  nocc_ = 0.00000000
 ef = -0.11207 sum = 1.00000 

 Iter: 32  T:      100.000  val:-0.112074  sumni 0.00000
 ne = 1.0000

 iter:33  failiter:33  energy:     -1.059861256482  total:     -0.856331560870  error:     -0.000000000004
 In Bisection function HOMO = -0.343  LUMO =  1.508

 0.58204 = (-0.34345 + 1.50753)/2.0
 sum -  nocc_ = 1.00000000
 On Iteration in Bisection 0
 a: 1.00000  b:-0.50000

 0.11930 = (-0.34345 + 0.58204)/2.0
 sum -  nocc_ = 1.00000000
 On Iteration in Bisection 1
 a: 1.00000  b:-0.50000

 -0.11207 = (-0.34345 + 0.11930)/2.0
 sum -  nocc_ = 0.00000000
 ef = -0.11207 sum = 1.00000 

 Iter: 33  T:      100.000  val:-0.112074  sumni 0.00000
 ne = 1.0000

 iter:34  failiter:34  energy:     -1.059861256483  total:     -0.856331560872  error:     -0.000000000002
 In Bisection function HOMO = -0.343  LUMO =  1.508

 0.58204 = (-0.34345 + 1.50753)/2.0
 sum -  nocc_ = 1.00000000
 On Iteration in Bisection 0
 a: 1.00000  b:-0.50000

 0.11930 = (-0.34345 + 0.58204)/2.0
 sum -  nocc_ = 1.00000000
 On Iteration in Bisection 1
 a: 1.00000  b:-0.50000

 -0.11207 = (-0.34345 + 0.11930)/2.0
 sum -  nocc_ = 0.00000000
 ef = -0.11207 sum = 1.00000 

 Iter: 34  T:      100.000  val:-0.112074  sumni 0.00000
 ne = 1.0000

 iter:35  failiter:35  energy:     -1.059861256484  total:     -0.856331560872  error:     -0.000000000001
 FTHFEnergy =    -0.856332
 FD_dis[0] = 1.00000000 with -0.343446 eig value
 FD_dis[1] = 0.00000000 with -0.092033 eig value
 FD_dis[2] = 0.00000000 with 0.616458 eig value
 FD_dis[3] = 0.00000000 with 0.671305 eig value
 FD_dis[4] = 0.00000000 with 1.459354 eig value
 FD_dis[5] = 0.00000000 with 1.462934 eig value
 FD_dis[6] = 0.00000000 with 1.462934 eig value
 FD_dis[7] = 0.00000000 with 1.468558 eig value
 FD_dis[8] = 0.00000000 with 1.468558 eig value
 FD_dis[9] = 0.00000000 with 1.507533 eig value
*** PSI4 exiting successfully. Buy a developer a beer!
