    -----------------------------------------------------------------------
          PSI4: An Open-Source Ab Initio Electronic Structure Package
                              PSI 4.0 Driver

               Git: Rev {master} 556e8139d3cfa1f96ccffe2cdf22cc56a185d2b2

    J. M. Turney, A. C. Simmonett, R. M. Parrish, E. G. Hohenstein,
    F. A. Evangelista, J. T. Fermann, B. J. Mintz, L. A. Burns, J. J. Wilke,
    M. L. Abrams, N. J. Russ, M. L. Leininger, C. L. Janssen, E. T. Seidl,
    W. D. Allen, H. F. Schaefer, R. A. King, E. F. Valeev, C. D. Sherrill,
    and T. D. Crawford, WIREs Comput. Mol. Sci. 2, 556-565 (2012)
    (doi: 10.1002/wcms.93)

                         Additional Contributions by
    A. E. DePrince, M. Saitow, U. Bozkaya, A. Yu. Sokolov
    -----------------------------------------------------------------------

    Process ID:  14579
    PSI4DATADIR: /Users/kevinhannon/Programs/psi4cmake/psi4/lib
    Memory level set to 256.000 MB

  ==> Input File <==

--------------------------------------------------------------------------

# PYTHONPATH must include directory above plugin directory.
#     Define either externally or here, then import plugin.
sys.path.insert(0, '/Users/kevinhannon/Programs/Quantum_Programs/Quantum-Programs/GS/')
import scf

molecule {
0 1
H
H 1 2.80000
symmetry c1
units angstrom
}


set {
  basis cc-pvdz
  reference rhf
  scf_type  pk
}

set scf {
  DO_FTHF true
  MAX_ITER 130
  MAX_TEMP 20000
  TEMP_INCREMENT 0
  bisect  true
  bisect_iter  40
}
energy('rhf')
energy('scf')


--------------------------------------------------------------------------

*** tstart() called on Kevins-MacBook-Pro.local
*** at Sun Apr 12 15:46:08 2015

/Users/kevinhannon/Programs/Quantum_Programs/Quantum-Programs/GS/scf/scf.so loaded.

*** tstart() called on Kevins-MacBook-Pro.local
*** at Sun Apr 12 15:46:08 2015


         ---------------------------------------------------------
                                   SCF
            by Justin Turney, Rob Parrish, and Andy Simmonett
                              RHF Reference
                        1 Threads,    256 MiB Core
         ---------------------------------------------------------

  ==> Geometry <==

    Molecular point group: c1
    Full point group: D_inf_h

    Geometry (in Angstrom), charge = 0, multiplicity = 1:

       Center              X                  Y                   Z       
    ------------   -----------------  -----------------  -----------------
           H          0.000000000000     0.000000000000    -1.400000000000
           H          0.000000000000     0.000000000000     1.400000000000

  Running in c1 symmetry.

  Rotational constants: A = ************  B =      4.26703  C =      4.26703 [cm^-1]
  Rotational constants: A = ************  B = 127922.22009  C = 127922.22009 [MHz]
  Nuclear repulsion =    0.188991860210714

  Charge       = 0
  Multiplicity = 1
  Electrons    = 2
  Nalpha       = 1
  Nbeta        = 1

  ==> Algorithm <==

  SCF Algorithm Type is PK.
  DIIS enabled.
  MOM disabled.
  Fractional occupation disabled.
  Guess Type is CORE.
  Energy threshold   = 1.00e-06
  Density threshold  = 1.00e-06
  Integral threshold = 0.00e+00

  ==> Primary Basis <==

  Basis Set: CC-PVDZ
    Number of shells: 6
    Number of basis function: 10
    Number of Cartesian functions: 10
    Spherical Harmonics?: true
    Max angular momentum: 1

  ==> Pre-Iterations <==

   -------------------------------------------------------
    Irrep   Nso     Nmo     Nalpha   Nbeta   Ndocc  Nsocc
   -------------------------------------------------------
     A         10      10       0       0       0       0
   -------------------------------------------------------
    Total      10      10       1       1       1       0
   -------------------------------------------------------

  Starting with a DF guess...

 OEINTS: Overlap, kinetic, potential, dipole, and quadrupole integrals
         stored in file 35.

  ==> Integral Setup <==

  ==> DFJK: Density-Fitted J/K Matrices <==

    J tasked:                  Yes
    K tasked:                  Yes
    wK tasked:                  No
    OpenMP threads:              1
    Integrals threads:           1
    Memory (MB):               183
    Algorithm:                Core
    Integral Cache:           NONE
    Schwarz Cutoff:          1E-12
    Fitting Condition:       1E-12

   => Auxiliary Basis Set <=

  Basis Set: 
    Number of shells: 18
    Number of basis function: 46
    Number of Cartesian functions: 50
    Spherical Harmonics?: true
    Max angular momentum: 2

  Minimum eigenvalue in the overlap matrix is 2.6103246186E-01.
  Using Symmetric Orthogonalization.
  SCF Guess: Core (One-Electron) Hamiltonian.

  ==> Iterations <==

                           Total Energy        Delta E     RMS |[F,P]|

   @DF-RHF iter   1:    -0.82089566805966   -8.20896e-01   1.24480e-02 
   @DF-RHF iter   2:    -0.83971911340060   -1.88234e-02   2.11573e-03 DIIS
   @DF-RHF iter   3:    -0.84028452825285   -5.65415e-04   2.28592e-05 DIIS
   @DF-RHF iter   4:    -0.84028457421083   -4.59580e-08   7.48914e-07 DIIS

  DF guess converged.

  ==> Integral Setup <==

 MINTS: Wrapper to libmints.
   by Justin Turney

   Calculation information:
      Number of atoms:                   2
      Number of AO shells:               6
      Number of SO shells:               6
      Number of primitives:             10
      Number of atomic orbitals:        10
      Number of basis functions:        10

      Number of irreps:                  1
      Integral cutoff                 0.00e+00
      Number of functions per irrep: [  10 ]

 OEINTS: Overlap, kinetic, potential, dipole, and quadrupole integrals
         stored in file 35.

      Computing two-electron integrals...done
      Computed 512 non-zero two-electron integrals.
        Stored in file 33.

	Batch   1 pq = [       0,      55] index = [             0,1540]
  ==> DiskJK: Disk-Based J/K Matrices <==

    J tasked:                  Yes
    K tasked:                  Yes
    wK tasked:                  No
    Memory (MB):               183
    Schwarz Cutoff:          1E-12

   @RHF iter   5:    -0.84025323262209    3.13416e-05   8.17889e-06 DIIS
   @RHF iter   6:    -0.84025324023740   -7.61531e-09   1.36756e-06 DIIS
   @RHF iter   7:    -0.84025324046590   -2.28504e-10   2.33661e-08 DIIS

  ==> Post-Iterations <==

    Orbital Energies (a.u.)
    -----------------------

    Doubly Occupied:                                                      

       1A     -0.332744  

    Virtual:                                                              

       2A     -0.104949     3A      0.603345     4A      0.676563  
       5A      1.462233     6A      1.462233     7A      1.463956  
       8A      1.465713     9A      1.465713    10A      1.486543  

    Final Occupation by Irrep:
              A 
    DOCC [     1 ]

  Energy converged.

  @RHF Final Energy:    -0.84025324046590

   => Energetics <=

    Nuclear Repulsion Energy =              0.1889918602107143
    One-Electron Energy =                  -1.3930019035727845
    Two-Electron Energy =                   0.3637568028961693
    DFT Exchange-Correlation Energy =       0.0000000000000000
    Empirical Dispersion Energy =           0.0000000000000000
    PCM Polarization Energy =               0.0000000000000000
    EFP Energy =                            0.0000000000000000
    Total Energy =                         -0.8402532404659009

    Alert: EFP and PCM quantities not currently incorporated into SCF psivars.

Properties will be evaluated at   0.000000,   0.000000,   0.000000 Bohr
  ==> Properties <==


Properties computed using the SCF density matrix

  Nuclear Dipole Moment: (a.u.)
     X:     0.0000      Y:     0.0000      Z:     0.0000

  Electronic Dipole Moment: (a.u.)
     X:     0.0000      Y:    -0.0000      Z:    -0.0000

  Dipole Moment: (a.u.)
     X:     0.0000      Y:    -0.0000      Z:    -0.0000     Total:     0.0000

  Dipole Moment: (Debye)
     X:     0.0000      Y:    -0.0000      Z:    -0.0000     Total:     0.0000


  Saving occupied orbitals to File 180.

*** tstop() called on Kevins-MacBook-Pro.local at Sun Apr 12 15:46:08 2015
Module time:
	user time   =       0.21 seconds =       0.00 minutes
	system time =       0.01 seconds =       0.00 minutes
	total time  =          0 seconds =       0.00 minutes
Total time:
	user time   =       0.22 seconds =       0.00 minutes
	system time =       0.01 seconds =       0.00 minutes
	total time  =          0 seconds =       0.00 minutes

*** tstart() called on Kevins-MacBook-Pro.local
*** at Sun Apr 12 15:46:08 2015


         ---------------------------------------------------------
                                   SCF
            by Justin Turney, Rob Parrish, and Andy Simmonett
                              RHF Reference
                        1 Threads,    256 MiB Core
         ---------------------------------------------------------

  ==> Geometry <==

    Molecular point group: c1
    Full point group: D_inf_h

    Geometry (in Angstrom), charge = 0, multiplicity = 1:

       Center              X                  Y                   Z       
    ------------   -----------------  -----------------  -----------------
           H          0.000000000000     0.000000000000    -1.400000000000
           H          0.000000000000     0.000000000000     1.400000000000

  Running in c1 symmetry.

  Rotational constants: A = ************  B =      4.26703  C =      4.26703 [cm^-1]
  Rotational constants: A = ************  B = 127922.22009  C = 127922.22009 [MHz]
  Nuclear repulsion =    0.188991860210714

  Charge       = 0
  Multiplicity = 1
  Electrons    = 2
  Nalpha       = 1
  Nbeta        = 1

  ==> Algorithm <==

  SCF Algorithm Type is PK.
  DIIS enabled.
  MOM disabled.
  Fractional occupation disabled.
  Guess Type is CORE.
  Energy threshold   = 1.00e-08
  Density threshold  = 1.00e-08
  Integral threshold = 0.00e+00

  ==> Primary Basis <==

  Basis Set: CC-PVDZ
    Number of shells: 6
    Number of basis function: 10
    Number of Cartesian functions: 10
    Spherical Harmonics?: true
    Max angular momentum: 1

  ==> Pre-Iterations <==

   -------------------------------------------------------
    Irrep   Nso     Nmo     Nalpha   Nbeta   Ndocc  Nsocc
   -------------------------------------------------------
     A         10      10       0       0       0       0
   -------------------------------------------------------
    Total      10      10       1       1       1       0
   -------------------------------------------------------

  Starting with a DF guess...

 OEINTS: Overlap, kinetic, potential, dipole, and quadrupole integrals
         stored in file 35.

  ==> Integral Setup <==

  ==> DFJK: Density-Fitted J/K Matrices <==

    J tasked:                  Yes
    K tasked:                  Yes
    wK tasked:                  No
    OpenMP threads:              1
    Integrals threads:           1
    Memory (MB):               183
    Algorithm:                Core
    Integral Cache:           NONE
    Schwarz Cutoff:          1E-12
    Fitting Condition:       1E-12

   => Auxiliary Basis Set <=

  Basis Set: 
    Number of shells: 18
    Number of basis function: 46
    Number of Cartesian functions: 50
    Spherical Harmonics?: true
    Max angular momentum: 2

  Minimum eigenvalue in the overlap matrix is 2.6103246186E-01.
  Using Symmetric Orthogonalization.
  SCF Guess: Core (One-Electron) Hamiltonian.

  ==> Iterations <==

                           Total Energy        Delta E     RMS |[F,P]|

   @DF-RHF iter   1:    -0.82089566805966   -8.20896e-01   1.24480e-02 
   @DF-RHF iter   2:    -0.83971911340060   -1.88234e-02   2.11573e-03 DIIS
   @DF-RHF iter   3:    -0.84028452825285   -5.65415e-04   2.28592e-05 DIIS
   @DF-RHF iter   4:    -0.84028457421083   -4.59580e-08   7.48914e-07 DIIS
   @DF-RHF iter   5:    -0.84028457425722   -4.63953e-11   1.92252e-10 DIIS

  DF guess converged.

  ==> Integral Setup <==

 MINTS: Wrapper to libmints.
   by Justin Turney

   Calculation information:
      Number of atoms:                   2
      Number of AO shells:               6
      Number of SO shells:               6
      Number of primitives:             10
      Number of atomic orbitals:        10
      Number of basis functions:        10

      Number of irreps:                  1
      Integral cutoff                 0.00e+00
      Number of functions per irrep: [  10 ]

 OEINTS: Overlap, kinetic, potential, dipole, and quadrupole integrals
         stored in file 35.

      Computing two-electron integrals...done
      Computed 512 non-zero two-electron integrals.
        Stored in file 33.

	Batch   1 pq = [       0,      55] index = [             0,1540]
  ==> DiskJK: Disk-Based J/K Matrices <==

    J tasked:                  Yes
    K tasked:                  Yes
    wK tasked:                  No
    Memory (MB):               183
    Schwarz Cutoff:          1E-12

   @RHF iter   6:    -0.84025323262245    3.13416e-05   8.17870e-06 DIIS
   @RHF iter   7:    -0.84025324023741   -7.61495e-09   1.36753e-06 DIIS
   @RHF iter   8:    -0.84025324046590   -2.28495e-10   2.33655e-08 DIIS
   @RHF iter   9:    -0.84025324046595   -4.61853e-14   4.21053e-13 DIIS

  ==> Post-Iterations <==

    Orbital Energies (a.u.)
    -----------------------

    Doubly Occupied:                                                      

       1A     -0.332744  

    Virtual:                                                              

       2A     -0.104949     3A      0.603345     4A      0.676563  
       5A      1.462233     6A      1.462233     7A      1.463956  
       8A      1.465713     9A      1.465713    10A      1.486543  

    Final Occupation by Irrep:
              A 
    DOCC [     1 ]

  Energy converged.

  @RHF Final Energy:    -0.84025324046595

   => Energetics <=

    Nuclear Repulsion Energy =              0.1889918602107143
    One-Electron Energy =                  -1.3930019311787367
    Two-Electron Energy =                   0.3637568305020746
    DFT Exchange-Correlation Energy =       0.0000000000000000
    Empirical Dispersion Energy =           0.0000000000000000
    PCM Polarization Energy =               0.0000000000000000
    EFP Energy =                            0.0000000000000000
    Total Energy =                         -0.8402532404659477

    Alert: EFP and PCM quantities not currently incorporated into SCF psivars.

Properties will be evaluated at   0.000000,   0.000000,   0.000000 Bohr
  ==> Properties <==


Properties computed using the SCF density matrix

  Nuclear Dipole Moment: (a.u.)
     X:     0.0000      Y:     0.0000      Z:     0.0000

  Electronic Dipole Moment: (a.u.)
     X:     0.0000      Y:     0.0000      Z:    -0.0000

  Dipole Moment: (a.u.)
     X:     0.0000      Y:     0.0000      Z:    -0.0000     Total:     0.0000

  Dipole Moment: (Debye)
     X:     0.0000      Y:     0.0000      Z:    -0.0000     Total:     0.0000


  Saving occupied orbitals to File 180.

*** tstop() called on Kevins-MacBook-Pro.local at Sun Apr 12 15:46:09 2015
Module time:
	user time   =       0.19 seconds =       0.00 minutes
	system time =       0.01 seconds =       0.00 minutes
	total time  =          1 seconds =       0.02 minutes
Total time:
	user time   =       0.42 seconds =       0.01 minutes
	system time =       0.02 seconds =       0.00 minutes
	total time  =          1 seconds =       0.02 minutes
Reading options from the SCF block
Calling plugin scf.so.
    Molecular point group: c1
    Full point group: D_inf_h

    Geometry (in Angstrom), charge = 0, multiplicity = 1:

       Center              X                  Y                   Z       
    ------------   -----------------  -----------------  -----------------
           H          0.000000000000     0.000000000000    -1.400000000000
           H          0.000000000000     0.000000000000     1.400000000000


    Nuclear repulsion energy:       0.18899186

  ## Overlap (Symmetry 0) ##
  Irrep: 1 Size: 10 x 10

                 1                   2                   3                   4                   5

    1     1.00000000000000     0.68486025149275     0.00000000000000     0.00000000000000     0.00000000000000
    2     0.68486025149275     1.00000000000000     0.00000000000000     0.00000000000000     0.00000000000000
    3     0.00000000000000     0.00000000000000     1.00000000000000     0.00000000000000     0.00000000000000
    4     0.00000000000000     0.00000000000000     0.00000000000000     1.00000000000000     0.00000000000000
    5     0.00000000000000     0.00000000000000     0.00000000000000     0.00000000000000     1.00000000000000
    6     0.00132238884738     0.04470237401397     0.00117818314613     0.00000000000000     0.00000000000000
    7     0.04470237401397     0.18125941217389     0.04089532473691     0.00000000000000     0.00000000000000
    8    -0.00117818314613    -0.04089532473691    -0.00073615627535     0.00000000000000     0.00000000000000
    9     0.00000000000000     0.00000000000000     0.00000000000000     0.00003803653271     0.00000000000000
   10     0.00000000000000     0.00000000000000     0.00000000000000     0.00000000000000     0.00003803653271

                 6                   7                   8                   9                  10

    1     0.00132238884738     0.04470237401397    -0.00117818314613     0.00000000000000     0.00000000000000
    2     0.04470237401397     0.18125941217389    -0.04089532473691     0.00000000000000     0.00000000000000
    3     0.00117818314613     0.04089532473691    -0.00073615627535     0.00000000000000     0.00000000000000
    4     0.00000000000000     0.00000000000000     0.00000000000000     0.00003803653271     0.00000000000000
    5     0.00000000000000     0.00000000000000     0.00000000000000     0.00000000000000     0.00003803653271
    6     1.00000000000000     0.68486025149275    -0.00000000000000     0.00000000000000     0.00000000000000
    7     0.68486025149275     1.00000000000000    -0.00000000000000     0.00000000000000     0.00000000000000
    8    -0.00000000000000    -0.00000000000000     1.00000000000000     0.00000000000000     0.00000000000000
    9     0.00000000000000     0.00000000000000     0.00000000000000     1.00000000000000     0.00000000000000
   10     0.00000000000000     0.00000000000000     0.00000000000000     0.00000000000000     1.00000000000000



  ## Kinetic (Symmetry 0) ##
  Irrep: 1 Size: 10 x 10

                 1                   2                   3                   4                   5

    1     0.96945722711242     0.20123413106538    -0.00000000000000     0.00000000000000     0.00000000000000
    2     0.20123413106538     0.18300000000000     0.00000000000000     0.00000000000000     0.00000000000000
    3    -0.00000000000000     0.00000000000000     1.81750000000000     0.00000000000000     0.00000000000000
    4     0.00000000000000     0.00000000000000     0.00000000000000     1.81750000000000     0.00000000000000
    5     0.00000000000000     0.00000000000000     0.00000000000000     0.00000000000000     1.81750000000000
    6    -0.00282039696214    -0.01063272621454    -0.00340067981052     0.00000000000000     0.00000000000000
    7    -0.01063272621454    -0.00459579233697    -0.00362997371259     0.00000000000000     0.00000000000000
    8     0.00340067981052     0.00362997371259     0.00354576222451     0.00000000000000     0.00000000000000
    9     0.00000000000000     0.00000000000000     0.00000000000000    -0.00021228768753     0.00000000000000
   10     0.00000000000000     0.00000000000000     0.00000000000000     0.00000000000000    -0.00021228768753

                 6                   7                   8                   9                  10

    1    -0.00282039696214    -0.01063272621454     0.00340067981052     0.00000000000000     0.00000000000000
    2    -0.01063272621454    -0.00459579233697     0.00362997371259     0.00000000000000     0.00000000000000
    3    -0.00340067981052    -0.00362997371259     0.00354576222451     0.00000000000000     0.00000000000000
    4     0.00000000000000     0.00000000000000     0.00000000000000    -0.00021228768753     0.00000000000000
    5     0.00000000000000     0.00000000000000     0.00000000000000     0.00000000000000    -0.00021228768753
    6     0.96945722711242     0.20123413106538     0.00000000000000     0.00000000000000     0.00000000000000
    7     0.20123413106538     0.18300000000000    -0.00000000000000     0.00000000000000     0.00000000000000
    8     0.00000000000000    -0.00000000000000     1.81750000000000     0.00000000000000     0.00000000000000
    9     0.00000000000000     0.00000000000000     0.00000000000000     1.81750000000000     0.00000000000000
   10     0.00000000000000     0.00000000000000     0.00000000000000     0.00000000000000     1.81750000000000



  ## Potential (Symmetry 0) ##
  Irrep: 1 Size: 10 x 10

                 1                   2                   3                   4                   5

    1    -1.56685364489978    -0.77914021656071    -0.02247103396778     0.00000000000000     0.00000000000000
    2    -0.77914021656071    -0.74632870695345    -0.02107899271680     0.00000000000000     0.00000000000000
    3    -0.02247103396778    -0.02107899271680    -1.10071535976281     0.00000000000000     0.00000000000000
    4     0.00000000000000     0.00000000000000     0.00000000000000    -1.09375140162664     0.00000000000000
    5     0.00000000000000     0.00000000000000     0.00000000000000     0.00000000000000    -1.09375140162664
    6    -0.00100424915792    -0.04392806115679    -0.00090706556859     0.00000000000000     0.00000000000000
    7    -0.04392806115679    -0.12817693867685    -0.03640026520341     0.00000000000000     0.00000000000000
    8     0.00090706556859     0.03640026520341     0.00055368549777     0.00000000000000     0.00000000000000
    9     0.00000000000000     0.00000000000000     0.00000000000000    -0.00002734167870     0.00000000000000
   10     0.00000000000000     0.00000000000000     0.00000000000000     0.00000000000000    -0.00002734167870

                 6                   7                   8                   9                  10

    1    -0.00100424915792    -0.04392806115679     0.00090706556859     0.00000000000000     0.00000000000000
    2    -0.04392806115679    -0.12817693867685     0.03640026520341     0.00000000000000     0.00000000000000
    3    -0.00090706556859    -0.03640026520341     0.00055368549777     0.00000000000000     0.00000000000000
    4     0.00000000000000     0.00000000000000     0.00000000000000    -0.00002734167870     0.00000000000000
    5     0.00000000000000     0.00000000000000     0.00000000000000     0.00000000000000    -0.00002734167870
    6    -1.56685364489978    -0.77914021656071     0.02247103396778     0.00000000000000     0.00000000000000
    7    -0.77914021656071    -0.74632870695345     0.02107899271680     0.00000000000000     0.00000000000000
    8     0.02247103396778     0.02107899271680    -1.10071535976281     0.00000000000000     0.00000000000000
    9     0.00000000000000     0.00000000000000     0.00000000000000    -1.09375140162664     0.00000000000000
   10     0.00000000000000     0.00000000000000     0.00000000000000     0.00000000000000    -1.09375140162664



  ## One Electron Ints (Symmetry 0) ##
  Irrep: 1 Size: 10 x 10

                 1                   2                   3                   4                   5

    1    -0.59739641778736    -0.57790608549532    -0.02247103396778     0.00000000000000     0.00000000000000
    2    -0.57790608549532    -0.56332870695345    -0.02107899271680     0.00000000000000     0.00000000000000
    3    -0.02247103396778    -0.02107899271680     0.71678464023719     0.00000000000000     0.00000000000000
    4     0.00000000000000     0.00000000000000     0.00000000000000     0.72374859837336     0.00000000000000
    5     0.00000000000000     0.00000000000000     0.00000000000000     0.00000000000000     0.72374859837336
    6    -0.00382464612006    -0.05456078737132    -0.00430774537911     0.00000000000000     0.00000000000000
    7    -0.05456078737132    -0.13277273101382    -0.04003023891600     0.00000000000000     0.00000000000000
    8     0.00430774537911     0.04003023891600     0.00409944772228     0.00000000000000     0.00000000000000
    9     0.00000000000000     0.00000000000000     0.00000000000000    -0.00023962936623     0.00000000000000
   10     0.00000000000000     0.00000000000000     0.00000000000000     0.00000000000000    -0.00023962936623

                 6                   7                   8                   9                  10

    1    -0.00382464612006    -0.05456078737132     0.00430774537911     0.00000000000000     0.00000000000000
    2    -0.05456078737132    -0.13277273101382     0.04003023891600     0.00000000000000     0.00000000000000
    3    -0.00430774537911    -0.04003023891600     0.00409944772228     0.00000000000000     0.00000000000000
    4     0.00000000000000     0.00000000000000     0.00000000000000    -0.00023962936623     0.00000000000000
    5     0.00000000000000     0.00000000000000     0.00000000000000     0.00000000000000    -0.00023962936623
    6    -0.59739641778736    -0.57790608549532     0.02247103396778     0.00000000000000     0.00000000000000
    7    -0.57790608549532    -0.56332870695345     0.02107899271680     0.00000000000000     0.00000000000000
    8     0.02247103396778     0.02107899271680     0.71678464023719     0.00000000000000     0.00000000000000
    9     0.00000000000000     0.00000000000000     0.00000000000000     0.72374859837336     0.00000000000000
   10     0.00000000000000     0.00000000000000     0.00000000000000     0.00000000000000     0.72374859837336




	There are 0 unique integrals

  ## Fock (Symmetry 0) ##
  Irrep: 1 Size: 10 x 10

                 1                   2                   3                   4                   5

    1    -0.36602468608175    -0.34928891632128    -0.02217019764376    -0.00000000000000     0.00000000000000
    2    -0.34928891632128    -0.30357469897050    -0.00482208994550     0.00000000000000     0.00000000000000
    3    -0.02217019764376    -0.00482208994550     0.72031774594550    -0.00000000000000     0.00000000000000
    4    -0.00000000000000     0.00000000000000    -0.00000000000000     0.72374860853513     0.00000000000000
    5     0.00000000000000     0.00000000000000     0.00000000000000     0.00000000000000     0.72374860853513
    6    -0.00297521281659     0.01641643916875     0.03239968630397    -0.00000000000000     0.00000000000000
    7     0.01641643916875    -0.06880935919608    -0.06473769017411     0.00000000000000     0.00000000000000
    8    -0.03239968630397     0.06473769017411     0.00474392361132     0.00000000000000     0.00000000000000
    9     0.00000000000000     0.00000000000000     0.00000000000000    -0.00026715825385     0.00000000000000
   10     0.00000000000000     0.00000000000000     0.00000000000000     0.00000000000000    -0.00026715825385

                 6                   7                   8                   9                  10

    1    -0.00297521281659     0.01641643916875    -0.03239968630397     0.00000000000000     0.00000000000000
    2     0.01641643916875    -0.06880935919608     0.06473769017411     0.00000000000000     0.00000000000000
    3     0.03239968630397    -0.06473769017411     0.00474392361132     0.00000000000000     0.00000000000000
    4    -0.00000000000000     0.00000000000000     0.00000000000000    -0.00026715825385     0.00000000000000
    5     0.00000000000000     0.00000000000000     0.00000000000000     0.00000000000000    -0.00026715825385
    6    -0.36602468608175    -0.34928891632128     0.02217019764376     0.00000000000000     0.00000000000000
    7    -0.34928891632128    -0.30357469897050     0.00482208994550     0.00000000000000     0.00000000000000
    8     0.02217019764376     0.00482208994550     0.72031774594550    -0.00000000000000     0.00000000000000
    9     0.00000000000000     0.00000000000000    -0.00000000000000     0.72374860853513     0.00000000000000
   10     0.00000000000000     0.00000000000000     0.00000000000000     0.00000000000000     0.72374860853513



  ## C (Symmetry 0) ##
  Irrep: 1 Size: 10 x 10

                 1                   2                   3                   4                   5

    1    -0.91687521357369    -0.88030489306560    -0.02790272635252    -0.03754355786731     0.02287785478558
    2     0.96213708365440     0.85633917810701     0.01332269838747     0.10894822666972    -0.05931163911247
    3    -0.49895286094238     0.49884046827320     0.05233599072990     0.02176808124509    -0.01175880119525
    4     0.45111461662792    -0.53771523971307     0.08577834334784    -0.00001344794512    -0.00000000000000
    5     0.02239016994347    -0.05165821511061     0.70487499075076     0.00000000000001     0.00000000000000
    6     0.02877330401489     0.04027228569563     0.00126999491589     0.36630949488960    -0.90772166643112
    7    -0.09438505289143    -0.11195467267093    -0.00297955235317    -0.92324009918889     0.36994333951038
    8     0.02439049270426     0.02234441860467     0.00041779613200     0.00363384462031    -0.70922960034834
    9    -0.00000857941794     0.00001022641166    -0.00000163135541     0.70710678157108     0.00000000000000
   10     0.05641137967274    -0.06463944906264    -0.70189610438640     0.00000000000000     0.00000000000000

                 6                   7                   8                   9                  10

    1    -0.35575094069002    -0.40927710266965     0.02618364463583    -0.03754355786741     0.00013985496792
    2    -0.45211080394278    -0.33083109728248    -0.00898995463725     0.10894822666999    -0.01577547662224
    3    -0.50451929710848     0.49416780260107    -0.05231893718383     0.02176808124514    -0.01097919862241
    4    -0.45111461662792     0.53771523971307     0.08577834334784     0.00001344794512    -0.00000000000000
    5     0.02239231565295    -0.05166067380850    -0.70484829356658    -0.00000000000006     0.00000000000000
    6    -0.02873708516055    -0.00800399256784    -0.00109380389489     0.36630949489053    -0.90487765481038
    7     0.07250522793635     0.02813900000675     0.00246826092572    -0.92324009919122     0.36267565026976
    8    -0.00895453091956    -0.00564658723350    -0.00031563904626     0.00363384462031     0.70638558872759
    9     0.00000857941794    -0.00001022641165    -0.00000163135534    -0.70710678156929     0.00000000000000
   10    -0.05641223135798     0.06464141400879    -0.70186929389341    -0.00000000000002     0.00000000000000




 In Bisection function HOMO = -0.705  LUMO =  0.735

 0.01507 = (-0.70482 + 0.73497)/2.0
 sum -  nocc_ = 2.03231602
 On Iteration in Bisection 0
 a: 2.03232  b:-0.13331

 -0.34487 = (-0.70482 + 0.01507)/2.0
 sum -  nocc_ = 1.00068011
 On Iteration in Bisection 1
 a: 1.00068  b:-0.13331

 -0.52485 = (-0.70482 + -0.34487)/2.0
 sum -  nocc_ = 0.85394300
 On Iteration in Bisection 2
 a: 0.85394  b:-0.13331

 -0.61483 = (-0.70482 + -0.52485)/2.0
 sum -  nocc_ = 0.51124454
 On Iteration in Bisection 3
 a: 0.51124  b:-0.13331

 -0.65983 = (-0.70482 + -0.61483)/2.0
 sum -  nocc_ = 0.21143069
 On Iteration in Bisection 4
 a: 0.21143  b:-0.13331

 -0.68232 = (-0.70482 + -0.65983)/2.0
 sum -  nocc_ = 0.04022863
 On Iteration in Bisection 5
 a: 0.04023  b:-0.13331

 -0.69357 = (-0.70482 + -0.68232)/2.0
 sum -  nocc_ = -0.04689010
 On Iteration in Bisection 6
 a: -0.04689  b:-0.13331

 -0.68795 = (-0.69357 + -0.68232)/2.0
 sum -  nocc_ = -0.00333720
 On Iteration in Bisection 7
 a: -0.00334  b:-0.04689

 -0.68514 = (-0.68795 + -0.68232)/2.0
 sum -  nocc_ = 0.01845423
 On Iteration in Bisection 8
 a: 0.01845  b:-0.00334

 -0.68654 = (-0.68795 + -0.68514)/2.0
 sum -  nocc_ = 0.00755938
 On Iteration in Bisection 9
 a: 0.00756  b:-0.00334

 -0.68725 = (-0.68795 + -0.68654)/2.0
 sum -  nocc_ = 0.00211115
 On Iteration in Bisection 10
 a: 0.00211  b:-0.00334

 -0.68760 = (-0.68795 + -0.68725)/2.0
 sum -  nocc_ = -0.00061303
 On Iteration in Bisection 11
 a: -0.00061  b:-0.00334

 -0.68742 = (-0.68760 + -0.68725)/2.0
 sum -  nocc_ = 0.00074906
 On Iteration in Bisection 12
 a: 0.00075  b:-0.00061

 -0.68751 = (-0.68760 + -0.68742)/2.0
 sum -  nocc_ = 0.00006801
 On Iteration in Bisection 13
 a: 0.00007  b:-0.00061

 -0.68755 = (-0.68760 + -0.68751)/2.0
 sum -  nocc_ = -0.00027251
 On Iteration in Bisection 14
 a: -0.00027  b:-0.00061

 -0.68753 = (-0.68755 + -0.68751)/2.0
 sum -  nocc_ = -0.00010225
 On Iteration in Bisection 15
 a: -0.00010  b:-0.00027

 -0.68752 = (-0.68753 + -0.68751)/2.0
 sum -  nocc_ = -0.00001712
 On Iteration in Bisection 16
 a: -0.00002  b:-0.00010

 -0.68751 = (-0.68752 + -0.68751)/2.0
 sum -  nocc_ = 0.00002545
 On Iteration in Bisection 17
 a: 0.00003  b:-0.00002

 -0.68752 = (-0.68752 + -0.68751)/2.0
 sum -  nocc_ = 0.00000416
 On Iteration in Bisection 18
 a: 0.00000  b:-0.00002

 -0.68752 = (-0.68752 + -0.68752)/2.0
 sum -  nocc_ = -0.00000648
 On Iteration in Bisection 19
 a: -0.00001  b:-0.00002

 -0.68752 = (-0.68752 + -0.68752)/2.0
 sum -  nocc_ = -0.00000116
 On Iteration in Bisection 20
 a: -0.00000  b:-0.00001

 -0.68752 = (-0.68752 + -0.68752)/2.0
 sum -  nocc_ = 0.00000150
 On Iteration in Bisection 21
 a: 0.00000  b:-0.00000

 -0.68752 = (-0.68752 + -0.68752)/2.0
 sum -  nocc_ = 0.00000017
 On Iteration in Bisection 22
 a: 0.00000  b:-0.00000

 -0.68752 = (-0.68752 + -0.68752)/2.0
 sum -  nocc_ = -0.00000049
 On Iteration in Bisection 23
 a: -0.00000  b:-0.00000

 -0.68752 = (-0.68752 + -0.68752)/2.0
 sum -  nocc_ = -0.00000016
 On Iteration in Bisection 24
 a: -0.00000  b:-0.00000

 -0.68752 = (-0.68752 + -0.68752)/2.0
 sum -  nocc_ = 0.00000001
 ef = -0.68752 sum = 1.00000 

 Iter: 0  T:    20000.000  val:-0.687517  sumni 0.00000
 ne = 1.0000

Nuc Replusion =       0.188991860211
 1st iteration =       0.725998378762
 In Bisection function HOMO = -0.314  LUMO =  1.910

 0.79792 = (-0.31388 + 1.90971)/2.0
 sum -  nocc_ = 2.31626972
 On Iteration in Bisection 0
 a: 2.31627  b:-0.49985

 0.24202 = (-0.31388 + 0.79792)/2.0
 sum -  nocc_ = 0.55840900
 On Iteration in Bisection 1
 a: 0.55841  b:-0.49985

 -0.03593 = (-0.31388 + 0.24202)/2.0
 sum -  nocc_ = -0.00025099
 On Iteration in Bisection 2
 a: -0.00025  b:-0.49985

 0.10305 = (-0.03593 + 0.24202)/2.0
 sum -  nocc_ = 0.09868204
 On Iteration in Bisection 3
 a: 0.09868  b:-0.00025

 0.03356 = (-0.03593 + 0.10305)/2.0
 sum -  nocc_ = 0.03117327
 On Iteration in Bisection 4
 a: 0.03117  b:-0.00025

 -0.00118 = (-0.03593 + 0.03356)/2.0
 sum -  nocc_ = 0.01352266
 On Iteration in Bisection 5
 a: 0.01352  b:-0.00025

 -0.01856 = (-0.03593 + -0.00118)/2.0
 sum -  nocc_ = 0.00640647
 On Iteration in Bisection 6
 a: 0.00641  b:-0.00025

 -0.02724 = (-0.03593 + -0.01856)/2.0
 sum -  nocc_ = 0.00305012
 On Iteration in Bisection 7
 a: 0.00305  b:-0.00025

 -0.03158 = (-0.03593 + -0.02724)/2.0
 sum -  nocc_ = 0.00139630
 On Iteration in Bisection 8
 a: 0.00140  b:-0.00025

 -0.03376 = (-0.03593 + -0.03158)/2.0
 sum -  nocc_ = 0.00057230
 On Iteration in Bisection 9
 a: 0.00057  b:-0.00025

 -0.03484 = (-0.03593 + -0.03376)/2.0
 sum -  nocc_ = 0.00016062
 On Iteration in Bisection 10
 a: 0.00016  b:-0.00025

 -0.03538 = (-0.03593 + -0.03484)/2.0
 sum -  nocc_ = -0.00004518
 On Iteration in Bisection 11
 a: -0.00005  b:-0.00025

 -0.03511 = (-0.03538 + -0.03484)/2.0
 sum -  nocc_ = 0.00005772
 On Iteration in Bisection 12
 a: 0.00006  b:-0.00005

 -0.03525 = (-0.03538 + -0.03511)/2.0
 sum -  nocc_ = 0.00000627
 On Iteration in Bisection 13
 a: 0.00001  b:-0.00005

 -0.03532 = (-0.03538 + -0.03525)/2.0
 sum -  nocc_ = -0.00001946
 On Iteration in Bisection 14
 a: -0.00002  b:-0.00005

 -0.03528 = (-0.03532 + -0.03525)/2.0
 sum -  nocc_ = -0.00000660
 On Iteration in Bisection 15
 a: -0.00001  b:-0.00002

 -0.03527 = (-0.03528 + -0.03525)/2.0
 sum -  nocc_ = -0.00000017
 On Iteration in Bisection 16
 a: -0.00000  b:-0.00001

 -0.03526 = (-0.03527 + -0.03525)/2.0
 sum -  nocc_ = 0.00000305
 On Iteration in Bisection 17
 a: 0.00000  b:-0.00000

 -0.03526 = (-0.03527 + -0.03526)/2.0
 sum -  nocc_ = 0.00000144
 On Iteration in Bisection 18
 a: 0.00000  b:-0.00000

 -0.03526 = (-0.03527 + -0.03526)/2.0
 sum -  nocc_ = 0.00000064
 On Iteration in Bisection 19
 a: 0.00000  b:-0.00000

 -0.03526 = (-0.03527 + -0.03526)/2.0
 sum -  nocc_ = 0.00000024
 On Iteration in Bisection 20
 a: 0.00000  b:-0.00000

 -0.03527 = (-0.03527 + -0.03526)/2.0
 sum -  nocc_ = 0.00000004
 On Iteration in Bisection 21
 a: 0.00000  b:-0.00000

 -0.03527 = (-0.03527 + -0.03527)/2.0
 sum -  nocc_ = -0.00000007
 On Iteration in Bisection 22
 a: -0.00000  b:-0.00000

 -0.03527 = (-0.03527 + -0.03527)/2.0
 sum -  nocc_ = -0.00000001
 On Iteration in Bisection 23
 a: -0.00000  b:-0.00000

 -0.03527 = (-0.03527 + -0.03527)/2.0
 sum -  nocc_ = 0.00000001
 On Iteration in Bisection 24
 a: 0.00000  b:-0.00000

 -0.03527 = (-0.03527 + -0.03527)/2.0
 sum -  nocc_ = -0.00000000
 ef = -0.03527 sum = 1.00000 

 Iter: 0  T:    20000.000  val:-0.035265  sumni 0.00000
 ne = 1.0000

 iter:1  failiter:1  energy:     -0.991033234365  total:     -0.802041374155  error:     -0.150779993899
 In Bisection function HOMO = -0.314  LUMO =  1.909

 0.79716 = (-0.31442 + 1.90874)/2.0
 sum -  nocc_ = 2.13247233
 On Iteration in Bisection 0
 a: 2.13247  b:-0.46991

 0.24137 = (-0.31442 + 0.79716)/2.0
 sum -  nocc_ = 1.09525125
 On Iteration in Bisection 1
 a: 1.09525  b:-0.46991

 -0.03653 = (-0.31442 + 0.24137)/2.0
 sum -  nocc_ = 0.70295092
 On Iteration in Bisection 2
 a: 0.70295  b:-0.46991

 -0.17548 = (-0.31442 + -0.03653)/2.0
 sum -  nocc_ = 0.11743803
 On Iteration in Bisection 3
 a: 0.11744  b:-0.46991

 -0.24495 = (-0.31442 + -0.17548)/2.0
 sum -  nocc_ = -0.16529727
 On Iteration in Bisection 4
 a: -0.16530  b:-0.46991

 -0.21021 = (-0.24495 + -0.17548)/2.0
 sum -  nocc_ = -0.02319549
 On Iteration in Bisection 5
 a: -0.02320  b:-0.16530

 -0.19284 = (-0.21021 + -0.17548)/2.0
 sum -  nocc_ = 0.04672131
 On Iteration in Bisection 6
 a: 0.04672  b:-0.02320

 -0.20153 = (-0.21021 + -0.19284)/2.0
 sum -  nocc_ = 0.01173629
 On Iteration in Bisection 7
 a: 0.01174  b:-0.02320

 -0.20587 = (-0.21021 + -0.20153)/2.0
 sum -  nocc_ = -0.00572660
 On Iteration in Bisection 8
 a: -0.00573  b:-0.02320

 -0.20370 = (-0.20587 + -0.20153)/2.0
 sum -  nocc_ = 0.00300439
 On Iteration in Bisection 9
 a: 0.00300  b:-0.00573

 -0.20479 = (-0.20587 + -0.20370)/2.0
 sum -  nocc_ = -0.00136107
 On Iteration in Bisection 10
 a: -0.00136  b:-0.00573

 -0.20424 = (-0.20479 + -0.20370)/2.0
 sum -  nocc_ = 0.00082165
 On Iteration in Bisection 11
 a: 0.00082  b:-0.00136

 -0.20451 = (-0.20479 + -0.20424)/2.0
 sum -  nocc_ = -0.00026971
 On Iteration in Bisection 12
 a: -0.00027  b:-0.00136

 -0.20438 = (-0.20451 + -0.20424)/2.0
 sum -  nocc_ = 0.00027597
 On Iteration in Bisection 13
 a: 0.00028  b:-0.00027

 -0.20445 = (-0.20451 + -0.20438)/2.0
 sum -  nocc_ = 0.00000313
 On Iteration in Bisection 14
 a: 0.00000  b:-0.00027

 -0.20448 = (-0.20451 + -0.20445)/2.0
 sum -  nocc_ = -0.00013329
 On Iteration in Bisection 15
 a: -0.00013  b:-0.00027

 -0.20446 = (-0.20448 + -0.20445)/2.0
 sum -  nocc_ = -0.00006508
 On Iteration in Bisection 16
 a: -0.00007  b:-0.00013

 -0.20445 = (-0.20446 + -0.20445)/2.0
 sum -  nocc_ = -0.00003098
 On Iteration in Bisection 17
 a: -0.00003  b:-0.00007

 -0.20445 = (-0.20445 + -0.20445)/2.0
 sum -  nocc_ = -0.00001392
 On Iteration in Bisection 18
 a: -0.00001  b:-0.00003

 -0.20445 = (-0.20445 + -0.20445)/2.0
 sum -  nocc_ = -0.00000540
 On Iteration in Bisection 19
 a: -0.00001  b:-0.00001

 -0.20445 = (-0.20445 + -0.20445)/2.0
 sum -  nocc_ = -0.00000113
 On Iteration in Bisection 20
 a: -0.00000  b:-0.00001

 -0.20445 = (-0.20445 + -0.20445)/2.0
 sum -  nocc_ = 0.00000100
 On Iteration in Bisection 21
 a: 0.00000  b:-0.00000

 -0.20445 = (-0.20445 + -0.20445)/2.0
 sum -  nocc_ = -0.00000007
 On Iteration in Bisection 22
 a: -0.00000  b:-0.00000

 -0.20445 = (-0.20445 + -0.20445)/2.0
 sum -  nocc_ = 0.00000046
 On Iteration in Bisection 23
 a: 0.00000  b:-0.00000

 -0.20445 = (-0.20445 + -0.20445)/2.0
 sum -  nocc_ = 0.00000020
 On Iteration in Bisection 24
 a: 0.00000  b:-0.00000

 -0.20445 = (-0.20445 + -0.20445)/2.0
 sum -  nocc_ = 0.00000006
 On Iteration in Bisection 25
 a: 0.00000  b:-0.00000

 -0.20445 = (-0.20445 + -0.20445)/2.0
 sum -  nocc_ = -0.00000000
 ef = -0.20445 sum = 1.00000 

 Iter: 1  T:    20000.000  val:-0.204447  sumni 0.00000
 ne = 1.0000

 iter:2  failiter:2  energy:     -0.966527676455  total:     -0.777535816244  error:      0.024505557910
 In Bisection function HOMO = -0.291  LUMO =  1.790

 0.74962 = (-0.29053 + 1.78976)/2.0
 sum -  nocc_ = 2.15204344
 On Iteration in Bisection 0
 a: 2.15204  b:-0.43663

 0.22954 = (-0.29053 + 0.74962)/2.0
 sum -  nocc_ = 1.02488176
 On Iteration in Bisection 1
 a: 1.02488  b:-0.43663

 -0.03049 = (-0.29053 + 0.22954)/2.0
 sum -  nocc_ = 0.78844064
 On Iteration in Bisection 2
 a: 0.78844  b:-0.43663

 -0.16051 = (-0.29053 + -0.03049)/2.0
 sum -  nocc_ = 0.23144598
 On Iteration in Bisection 3
 a: 0.23145  b:-0.43663

 -0.22552 = (-0.29053 + -0.16051)/2.0
 sum -  nocc_ = -0.10491524
 On Iteration in Bisection 4
 a: -0.10492  b:-0.43663

 -0.19302 = (-0.22552 + -0.16051)/2.0
 sum -  nocc_ = 0.06327094
 On Iteration in Bisection 5
 a: 0.06327  b:-0.10492

 -0.20927 = (-0.22552 + -0.19302)/2.0
 sum -  nocc_ = -0.02081423
 On Iteration in Bisection 6
 a: -0.02081  b:-0.10492

 -0.20114 = (-0.20927 + -0.19302)/2.0
 sum -  nocc_ = 0.02122533
 On Iteration in Bisection 7
 a: 0.02123  b:-0.02081

 -0.20521 = (-0.20927 + -0.20114)/2.0
 sum -  nocc_ = 0.00020548
 On Iteration in Bisection 8
 a: 0.00021  b:-0.02081

 -0.20724 = (-0.20927 + -0.20521)/2.0
 sum -  nocc_ = -0.01030430
 On Iteration in Bisection 9
 a: -0.01030  b:-0.02081

 -0.20622 = (-0.20724 + -0.20521)/2.0
 sum -  nocc_ = -0.00504940
 On Iteration in Bisection 10
 a: -0.00505  b:-0.01030

 -0.20571 = (-0.20622 + -0.20521)/2.0
 sum -  nocc_ = -0.00242196
 On Iteration in Bisection 11
 a: -0.00242  b:-0.00505

 -0.20546 = (-0.20571 + -0.20521)/2.0
 sum -  nocc_ = -0.00110824
 On Iteration in Bisection 12
 a: -0.00111  b:-0.00242

 -0.20533 = (-0.20546 + -0.20521)/2.0
 sum -  nocc_ = -0.00045138
 On Iteration in Bisection 13
 a: -0.00045  b:-0.00111

 -0.20527 = (-0.20533 + -0.20521)/2.0
 sum -  nocc_ = -0.00012295
 On Iteration in Bisection 14
 a: -0.00012  b:-0.00045

 -0.20524 = (-0.20527 + -0.20521)/2.0
 sum -  nocc_ = 0.00004126
 On Iteration in Bisection 15
 a: 0.00004  b:-0.00012

 -0.20525 = (-0.20527 + -0.20524)/2.0
 sum -  nocc_ = -0.00004084
 On Iteration in Bisection 16
 a: -0.00004  b:-0.00012

 -0.20524 = (-0.20525 + -0.20524)/2.0
 sum -  nocc_ = 0.00000021
 On Iteration in Bisection 17
 a: 0.00000  b:-0.00004

 -0.20525 = (-0.20525 + -0.20524)/2.0
 sum -  nocc_ = -0.00002032
 On Iteration in Bisection 18
 a: -0.00002  b:-0.00004

 -0.20525 = (-0.20525 + -0.20524)/2.0
 sum -  nocc_ = -0.00001005
 On Iteration in Bisection 19
 a: -0.00001  b:-0.00002

 -0.20525 = (-0.20525 + -0.20524)/2.0
 sum -  nocc_ = -0.00000492
 On Iteration in Bisection 20
 a: -0.00000  b:-0.00001

 -0.20525 = (-0.20525 + -0.20524)/2.0
 sum -  nocc_ = -0.00000235
 On Iteration in Bisection 21
 a: -0.00000  b:-0.00000

 -0.20525 = (-0.20525 + -0.20524)/2.0
 sum -  nocc_ = -0.00000107
 On Iteration in Bisection 22
 a: -0.00000  b:-0.00000

 -0.20525 = (-0.20525 + -0.20524)/2.0
 sum -  nocc_ = -0.00000043
 On Iteration in Bisection 23
 a: -0.00000  b:-0.00000

 -0.20524 = (-0.20525 + -0.20524)/2.0
 sum -  nocc_ = -0.00000011
 On Iteration in Bisection 24
 a: -0.00000  b:-0.00000

 -0.20524 = (-0.20524 + -0.20524)/2.0
 sum -  nocc_ = 0.00000005
 On Iteration in Bisection 25
 a: 0.00000  b:-0.00000

 -0.20524 = (-0.20524 + -0.20524)/2.0
 sum -  nocc_ = -0.00000003
 On Iteration in Bisection 26
 a: -0.00000  b:-0.00000

 -0.20524 = (-0.20524 + -0.20524)/2.0
 sum -  nocc_ = 0.00000001
 On Iteration in Bisection 27
 a: 0.00000  b:-0.00000

 -0.20524 = (-0.20524 + -0.20524)/2.0
 sum -  nocc_ = -0.00000001
 ef = -0.20524 sum = 1.00000 

 Iter: 2  T:    20000.000  val:-0.205245  sumni 0.00000
 ne = 1.0000

 iter:3  failiter:3  energy:     -0.940729398161  total:     -0.751737537950  error:      0.025798278294
 In Bisection function HOMO = -0.283  LUMO =  1.711

 0.71414 = (-0.28281 + 1.71110)/2.0
 sum -  nocc_ = 2.15874240
 On Iteration in Bisection 0
 a: 2.15874  b:-0.40506

 0.21566 = (-0.28281 + 0.71414)/2.0
 sum -  nocc_ = 1.00933278
 On Iteration in Bisection 1
 a: 1.00933  b:-0.40506

 -0.03358 = (-0.28281 + 0.21566)/2.0
 sum -  nocc_ = 0.82407645
 On Iteration in Bisection 2
 a: 0.82408  b:-0.40506

 -0.15820 = (-0.28281 + -0.03358)/2.0
 sum -  nocc_ = 0.30609954
 On Iteration in Bisection 3
 a: 0.30610  b:-0.40506

 -0.22050 = (-0.28281 + -0.15820)/2.0
 sum -  nocc_ = -0.05303075
 On Iteration in Bisection 4
 a: -0.05303  b:-0.40506

 -0.18935 = (-0.22050 + -0.15820)/2.0
 sum -  nocc_ = 0.12847277
 On Iteration in Bisection 5
 a: 0.12847  b:-0.05303

 -0.20493 = (-0.22050 + -0.18935)/2.0
 sum -  nocc_ = 0.03784832
 On Iteration in Bisection 6
 a: 0.03785  b:-0.05303

 -0.21272 = (-0.22050 + -0.20493)/2.0
 sum -  nocc_ = -0.00759763
 On Iteration in Bisection 7
 a: -0.00760  b:-0.05303

 -0.20882 = (-0.21272 + -0.20493)/2.0
 sum -  nocc_ = 0.01512843
 On Iteration in Bisection 8
 a: 0.01513  b:-0.00760

 -0.21077 = (-0.21272 + -0.20882)/2.0
 sum -  nocc_ = 0.00376558
 On Iteration in Bisection 9
 a: 0.00377  b:-0.00760

 -0.21174 = (-0.21272 + -0.21077)/2.0
 sum -  nocc_ = -0.00191605
 On Iteration in Bisection 10
 a: -0.00192  b:-0.00760

 -0.21126 = (-0.21174 + -0.21077)/2.0
 sum -  nocc_ = 0.00092477
 On Iteration in Bisection 11
 a: 0.00092  b:-0.00192

 -0.21150 = (-0.21174 + -0.21126)/2.0
 sum -  nocc_ = -0.00049564
 On Iteration in Bisection 12
 a: -0.00050  b:-0.00192

 -0.21138 = (-0.21150 + -0.21126)/2.0
 sum -  nocc_ = 0.00021456
 On Iteration in Bisection 13
 a: 0.00021  b:-0.00050

 -0.21144 = (-0.21150 + -0.21138)/2.0
 sum -  nocc_ = -0.00014054
 On Iteration in Bisection 14
 a: -0.00014  b:-0.00050

 -0.21141 = (-0.21144 + -0.21138)/2.0
 sum -  nocc_ = 0.00003701
 On Iteration in Bisection 15
 a: 0.00004  b:-0.00014

 -0.21142 = (-0.21144 + -0.21141)/2.0
 sum -  nocc_ = -0.00005176
 On Iteration in Bisection 16
 a: -0.00005  b:-0.00014

 -0.21142 = (-0.21142 + -0.21141)/2.0
 sum -  nocc_ = -0.00000737
 On Iteration in Bisection 17
 a: -0.00001  b:-0.00005

 -0.21141 = (-0.21142 + -0.21141)/2.0
 sum -  nocc_ = 0.00001482
 On Iteration in Bisection 18
 a: 0.00001  b:-0.00001

 -0.21141 = (-0.21142 + -0.21141)/2.0
 sum -  nocc_ = 0.00000372
 On Iteration in Bisection 19
 a: 0.00000  b:-0.00001

 -0.21141 = (-0.21142 + -0.21141)/2.0
 sum -  nocc_ = -0.00000183
 On Iteration in Bisection 20
 a: -0.00000  b:-0.00001

 -0.21141 = (-0.21141 + -0.21141)/2.0
 sum -  nocc_ = 0.00000095
 On Iteration in Bisection 21
 a: 0.00000  b:-0.00000

 -0.21141 = (-0.21141 + -0.21141)/2.0
 sum -  nocc_ = -0.00000044
 On Iteration in Bisection 22
 a: -0.00000  b:-0.00000

 -0.21141 = (-0.21141 + -0.21141)/2.0
 sum -  nocc_ = 0.00000025
 On Iteration in Bisection 23
 a: 0.00000  b:-0.00000

 -0.21141 = (-0.21141 + -0.21141)/2.0
 sum -  nocc_ = -0.00000009
 On Iteration in Bisection 24
 a: -0.00000  b:-0.00000

 -0.21141 = (-0.21141 + -0.21141)/2.0
 sum -  nocc_ = 0.00000008
 On Iteration in Bisection 25
 a: 0.00000  b:-0.00000

 -0.21141 = (-0.21141 + -0.21141)/2.0
 sum -  nocc_ = -0.00000001
 ef = -0.21141 sum = 1.00000 

 Iter: 3  T:    20000.000  val:-0.211414  sumni 0.00000
 ne = 1.0000

 iter:4  failiter:4  energy:     -0.933206948415  total:     -0.744215088204  error:      0.007522449746
 In Bisection function HOMO = -0.279  LUMO =  1.654

 0.68719 = (-0.27917 + 1.65355)/2.0
 sum -  nocc_ = 2.14574339
 On Iteration in Bisection 0
 a: 2.14574  b:-0.38723

 0.20401 = (-0.27917 + 0.68719)/2.0
 sum -  nocc_ = 1.00258372
 On Iteration in Bisection 1
 a: 1.00258  b:-0.38723

 -0.03758 = (-0.27917 + 0.20401)/2.0
 sum -  nocc_ = 0.83076795
 On Iteration in Bisection 2
 a: 0.83077  b:-0.38723

 -0.15838 = (-0.27917 + -0.03758)/2.0
 sum -  nocc_ = 0.33195024
 On Iteration in Bisection 3
 a: 0.33195  b:-0.38723

 -0.21877 = (-0.27917 + -0.15838)/2.0
 sum -  nocc_ = -0.03010800
 On Iteration in Bisection 4
 a: -0.03011  b:-0.38723

 -0.18857 = (-0.21877 + -0.15838)/2.0
 sum -  nocc_ = 0.15398026
 On Iteration in Bisection 5
 a: 0.15398  b:-0.03011

 -0.20367 = (-0.21877 + -0.18857)/2.0
 sum -  nocc_ = 0.06222802
 On Iteration in Bisection 6
 a: 0.06223  b:-0.03011

 -0.21122 = (-0.21877 + -0.20367)/2.0
 sum -  nocc_ = 0.01607854
 On Iteration in Bisection 7
 a: 0.01608  b:-0.03011

 -0.21500 = (-0.21877 + -0.21122)/2.0
 sum -  nocc_ = -0.00701677
 On Iteration in Bisection 8
 a: -0.00702  b:-0.03011

 -0.21311 = (-0.21500 + -0.21122)/2.0
 sum -  nocc_ = 0.00453121
 On Iteration in Bisection 9
 a: 0.00453  b:-0.00702

 -0.21405 = (-0.21500 + -0.21311)/2.0
 sum -  nocc_ = -0.00124281
 On Iteration in Bisection 10
 a: -0.00124  b:-0.00702

 -0.21358 = (-0.21405 + -0.21311)/2.0
 sum -  nocc_ = 0.00164421
 On Iteration in Bisection 11
 a: 0.00164  b:-0.00124

 -0.21382 = (-0.21405 + -0.21358)/2.0
 sum -  nocc_ = 0.00020070
 On Iteration in Bisection 12
 a: 0.00020  b:-0.00124

 -0.21394 = (-0.21405 + -0.21382)/2.0
 sum -  nocc_ = -0.00052105
 On Iteration in Bisection 13
 a: -0.00052  b:-0.00124

 -0.21388 = (-0.21394 + -0.21382)/2.0
 sum -  nocc_ = -0.00016018
 On Iteration in Bisection 14
 a: -0.00016  b:-0.00052

 -0.21385 = (-0.21388 + -0.21382)/2.0
 sum -  nocc_ = 0.00002026
 On Iteration in Bisection 15
 a: 0.00002  b:-0.00016

 -0.21386 = (-0.21388 + -0.21385)/2.0
 sum -  nocc_ = -0.00006996
 On Iteration in Bisection 16
 a: -0.00007  b:-0.00016

 -0.21386 = (-0.21386 + -0.21385)/2.0
 sum -  nocc_ = -0.00002485
 On Iteration in Bisection 17
 a: -0.00002  b:-0.00007

 -0.21385 = (-0.21386 + -0.21385)/2.0
 sum -  nocc_ = -0.00000229
 On Iteration in Bisection 18
 a: -0.00000  b:-0.00002

 -0.21385 = (-0.21385 + -0.21385)/2.0
 sum -  nocc_ = 0.00000898
 On Iteration in Bisection 19
 a: 0.00001  b:-0.00000

 -0.21385 = (-0.21385 + -0.21385)/2.0
 sum -  nocc_ = 0.00000334
 On Iteration in Bisection 20
 a: 0.00000  b:-0.00000

 -0.21385 = (-0.21385 + -0.21385)/2.0
 sum -  nocc_ = 0.00000053
 On Iteration in Bisection 21
 a: 0.00000  b:-0.00000

 -0.21385 = (-0.21385 + -0.21385)/2.0
 sum -  nocc_ = -0.00000088
 On Iteration in Bisection 22
 a: -0.00000  b:-0.00000

 -0.21385 = (-0.21385 + -0.21385)/2.0
 sum -  nocc_ = -0.00000018
 On Iteration in Bisection 23
 a: -0.00000  b:-0.00000

 -0.21385 = (-0.21385 + -0.21385)/2.0
 sum -  nocc_ = 0.00000017
 On Iteration in Bisection 24
 a: 0.00000  b:-0.00000

 -0.21385 = (-0.21385 + -0.21385)/2.0
 sum -  nocc_ = -0.00000000
 ef = -0.21385 sum = 1.00000 

 Iter: 4  T:    20000.000  val:-0.213852  sumni 0.00000
 ne = 1.0000

 iter:5  failiter:5  energy:     -0.930233374290  total:     -0.741241514079  error:      0.002973574125
 In Bisection function HOMO = -0.279  LUMO =  1.610

 0.66579 = (-0.27853 + 1.61011)/2.0
 sum -  nocc_ = 2.10265634
 On Iteration in Bisection 0
 a: 2.10266  b:-0.38000

 0.19363 = (-0.27853 + 0.66579)/2.0
 sum -  nocc_ = 0.99928764
 On Iteration in Bisection 1
 a: 0.99929  b:-0.38000

 -0.04245 = (-0.27853 + 0.19363)/2.0
 sum -  nocc_ = 0.82669152
 On Iteration in Bisection 2
 a: 0.82669  b:-0.38000

 -0.16049 = (-0.27853 + -0.04245)/2.0
 sum -  nocc_ = 0.33365001
 On Iteration in Bisection 3
 a: 0.33365  b:-0.38000

 -0.21951 = (-0.27853 + -0.16049)/2.0
 sum -  nocc_ = -0.02531961
 On Iteration in Bisection 4
 a: -0.02532  b:-0.38000

 -0.19000 = (-0.21951 + -0.16049)/2.0
 sum -  nocc_ = 0.15744419
 On Iteration in Bisection 5
 a: 0.15744  b:-0.02532

 -0.20476 = (-0.21951 + -0.19000)/2.0
 sum -  nocc_ = 0.06639385
 On Iteration in Bisection 6
 a: 0.06639  b:-0.02532

 -0.21214 = (-0.21951 + -0.20476)/2.0
 sum -  nocc_ = 0.02056248
 On Iteration in Bisection 7
 a: 0.02056  b:-0.02532

 -0.21582 = (-0.21951 + -0.21214)/2.0
 sum -  nocc_ = -0.00237932
 On Iteration in Bisection 8
 a: -0.00238  b:-0.02532

 -0.21398 = (-0.21582 + -0.21214)/2.0
 sum -  nocc_ = 0.00909228
 On Iteration in Bisection 9
 a: 0.00909  b:-0.00238

 -0.21490 = (-0.21582 + -0.21398)/2.0
 sum -  nocc_ = 0.00335654
 On Iteration in Bisection 10
 a: 0.00336  b:-0.00238

 -0.21536 = (-0.21582 + -0.21490)/2.0
 sum -  nocc_ = 0.00048862
 On Iteration in Bisection 11
 a: 0.00049  b:-0.00238

 -0.21559 = (-0.21582 + -0.21536)/2.0
 sum -  nocc_ = -0.00094535
 On Iteration in Bisection 12
 a: -0.00095  b:-0.00238

 -0.21548 = (-0.21559 + -0.21536)/2.0
 sum -  nocc_ = -0.00022837
 On Iteration in Bisection 13
 a: -0.00023  b:-0.00095

 -0.21542 = (-0.21548 + -0.21536)/2.0
 sum -  nocc_ = 0.00013013
 On Iteration in Bisection 14
 a: 0.00013  b:-0.00023

 -0.21545 = (-0.21548 + -0.21542)/2.0
 sum -  nocc_ = -0.00004912
 On Iteration in Bisection 15
 a: -0.00005  b:-0.00023

 -0.21543 = (-0.21545 + -0.21542)/2.0
 sum -  nocc_ = 0.00004050
 On Iteration in Bisection 16
 a: 0.00004  b:-0.00005

 -0.21544 = (-0.21545 + -0.21543)/2.0
 sum -  nocc_ = -0.00000431
 On Iteration in Bisection 17
 a: -0.00000  b:-0.00005

 -0.21544 = (-0.21544 + -0.21543)/2.0
 sum -  nocc_ = 0.00001810
 On Iteration in Bisection 18
 a: 0.00002  b:-0.00000

 -0.21544 = (-0.21544 + -0.21544)/2.0
 sum -  nocc_ = 0.00000689
 On Iteration in Bisection 19
 a: 0.00001  b:-0.00000

 -0.21544 = (-0.21544 + -0.21544)/2.0
 sum -  nocc_ = 0.00000129
 On Iteration in Bisection 20
 a: 0.00000  b:-0.00000

 -0.21544 = (-0.21544 + -0.21544)/2.0
 sum -  nocc_ = -0.00000151
 On Iteration in Bisection 21
 a: -0.00000  b:-0.00000

 -0.21544 = (-0.21544 + -0.21544)/2.0
 sum -  nocc_ = -0.00000011
 On Iteration in Bisection 22
 a: -0.00000  b:-0.00000

 -0.21544 = (-0.21544 + -0.21544)/2.0
 sum -  nocc_ = 0.00000059
 On Iteration in Bisection 23
 a: 0.00000  b:-0.00000

 -0.21544 = (-0.21544 + -0.21544)/2.0
 sum -  nocc_ = 0.00000024
 On Iteration in Bisection 24
 a: 0.00000  b:-0.00000

 -0.21544 = (-0.21544 + -0.21544)/2.0
 sum -  nocc_ = 0.00000007
 On Iteration in Bisection 25
 a: 0.00000  b:-0.00000

 -0.21544 = (-0.21544 + -0.21544)/2.0
 sum -  nocc_ = -0.00000002
 On Iteration in Bisection 26
 a: -0.00000  b:-0.00000

 -0.21544 = (-0.21544 + -0.21544)/2.0
 sum -  nocc_ = 0.00000002
 On Iteration in Bisection 27
 a: 0.00000  b:-0.00000

 -0.21544 = (-0.21544 + -0.21544)/2.0
 sum -  nocc_ = 0.00000000
 ef = -0.21544 sum = 1.00000 

 Iter: 5  T:    20000.000  val:-0.215441  sumni 0.00000
 ne = 1.0000

 iter:6  failiter:6  energy:     -0.930034159800  total:     -0.741042299589  error:      0.000199214490
 In Bisection function HOMO = -0.279  LUMO =  1.577

 0.64888 = (-0.27917 + 1.57693)/2.0
 sum -  nocc_ = 2.03780999
 On Iteration in Bisection 0
 a: 2.03781  b:-0.37898

 0.18486 = (-0.27917 + 0.64888)/2.0
 sum -  nocc_ = 0.99734069
 On Iteration in Bisection 1
 a: 0.99734  b:-0.37898

 -0.04715 = (-0.27917 + 0.18486)/2.0
 sum -  nocc_ = 0.81805301
 On Iteration in Bisection 2
 a: 0.81805  b:-0.37898

 -0.16316 = (-0.27917 + -0.04715)/2.0
 sum -  nocc_ = 0.32427685
 On Iteration in Bisection 3
 a: 0.32428  b:-0.37898

 -0.22116 = (-0.27917 + -0.16316)/2.0
 sum -  nocc_ = -0.02981238
 On Iteration in Bisection 4
 a: -0.02981  b:-0.37898

 -0.19216 = (-0.22116 + -0.16316)/2.0
 sum -  nocc_ = 0.15028259
 On Iteration in Bisection 5
 a: 0.15028  b:-0.02981

 -0.20666 = (-0.22116 + -0.19216)/2.0
 sum -  nocc_ = 0.06053076
 On Iteration in Bisection 6
 a: 0.06053  b:-0.02981

 -0.21391 = (-0.22116 + -0.20666)/2.0
 sum -  nocc_ = 0.01537776
 On Iteration in Bisection 7
 a: 0.01538  b:-0.02981

 -0.21754 = (-0.22116 + -0.21391)/2.0
 sum -  nocc_ = -0.00721950
 On Iteration in Bisection 8
 a: -0.00722  b:-0.02981

 -0.21572 = (-0.21754 + -0.21391)/2.0
 sum -  nocc_ = 0.00407943
 On Iteration in Bisection 9
 a: 0.00408  b:-0.00722

 -0.21663 = (-0.21754 + -0.21572)/2.0
 sum -  nocc_ = -0.00157007
 On Iteration in Bisection 10
 a: -0.00157  b:-0.00722

 -0.21618 = (-0.21663 + -0.21572)/2.0
 sum -  nocc_ = 0.00125469
 On Iteration in Bisection 11
 a: 0.00125  b:-0.00157

 -0.21640 = (-0.21663 + -0.21618)/2.0
 sum -  nocc_ = -0.00015769
 On Iteration in Bisection 12
 a: -0.00016  b:-0.00157

 -0.21629 = (-0.21640 + -0.21618)/2.0
 sum -  nocc_ = 0.00054850
 On Iteration in Bisection 13
 a: 0.00055  b:-0.00016

 -0.21635 = (-0.21640 + -0.21629)/2.0
 sum -  nocc_ = 0.00019541
 On Iteration in Bisection 14
 a: 0.00020  b:-0.00016

 -0.21638 = (-0.21640 + -0.21635)/2.0
 sum -  nocc_ = 0.00001886
 On Iteration in Bisection 15
 a: 0.00002  b:-0.00016

 -0.21639 = (-0.21640 + -0.21638)/2.0
 sum -  nocc_ = -0.00006941
 On Iteration in Bisection 16
 a: -0.00007  b:-0.00016

 -0.21638 = (-0.21639 + -0.21638)/2.0
 sum -  nocc_ = -0.00002528
 On Iteration in Bisection 17
 a: -0.00003  b:-0.00007

 -0.21638 = (-0.21638 + -0.21638)/2.0
 sum -  nocc_ = -0.00000321
 On Iteration in Bisection 18
 a: -0.00000  b:-0.00003

 -0.21638 = (-0.21638 + -0.21638)/2.0
 sum -  nocc_ = 0.00000782
 On Iteration in Bisection 19
 a: 0.00001  b:-0.00000

 -0.21638 = (-0.21638 + -0.21638)/2.0
 sum -  nocc_ = 0.00000231
 On Iteration in Bisection 20
 a: 0.00000  b:-0.00000

 -0.21638 = (-0.21638 + -0.21638)/2.0
 sum -  nocc_ = -0.00000045
 On Iteration in Bisection 21
 a: -0.00000  b:-0.00000

 -0.21638 = (-0.21638 + -0.21638)/2.0
 sum -  nocc_ = 0.00000093
 On Iteration in Bisection 22
 a: 0.00000  b:-0.00000

 -0.21638 = (-0.21638 + -0.21638)/2.0
 sum -  nocc_ = 0.00000024
 On Iteration in Bisection 23
 a: 0.00000  b:-0.00000

 -0.21638 = (-0.21638 + -0.21638)/2.0
 sum -  nocc_ = -0.00000011
 On Iteration in Bisection 24
 a: -0.00000  b:-0.00000

 -0.21638 = (-0.21638 + -0.21638)/2.0
 sum -  nocc_ = 0.00000007
 On Iteration in Bisection 25
 a: 0.00000  b:-0.00000

 -0.21638 = (-0.21638 + -0.21638)/2.0
 sum -  nocc_ = -0.00000002
 On Iteration in Bisection 26
 a: -0.00000  b:-0.00000

 -0.21638 = (-0.21638 + -0.21638)/2.0
 sum -  nocc_ = 0.00000002
 On Iteration in Bisection 27
 a: 0.00000  b:-0.00000

 -0.21638 = (-0.21638 + -0.21638)/2.0
 sum -  nocc_ = 0.00000000
 ef = -0.21638 sum = 1.00000 

 Iter: 6  T:    20000.000  val:-0.216379  sumni 0.00000
 ne = 1.0000

 iter:7  failiter:7  energy:     -0.930864695833  total:     -0.741872835622  error:     -0.000830536033
 In Bisection function HOMO = -0.280  LUMO =  1.552

 0.63579 = (-0.28018 + 1.55176)/2.0
 sum -  nocc_ = 1.96643141
 On Iteration in Bisection 0
 a: 1.96643  b:-0.38046

 0.17781 = (-0.28018 + 0.63579)/2.0
 sum -  nocc_ = 0.99604621
 On Iteration in Bisection 1
 a: 0.99605  b:-0.38046

 -0.05119 = (-0.28018 + 0.17781)/2.0
 sum -  nocc_ = 0.80850606
 On Iteration in Bisection 2
 a: 0.80851  b:-0.38046

 -0.16568 = (-0.28018 + -0.05119)/2.0
 sum -  nocc_ = 0.31201197
 On Iteration in Bisection 3
 a: 0.31201  b:-0.38046

 -0.22293 = (-0.28018 + -0.16568)/2.0
 sum -  nocc_ = -0.03716566
 On Iteration in Bisection 4
 a: -0.03717  b:-0.38046

 -0.19431 = (-0.22293 + -0.16568)/2.0
 sum -  nocc_ = 0.14013472
 On Iteration in Bisection 5
 a: 0.14013  b:-0.03717

 -0.20862 = (-0.22293 + -0.19431)/2.0
 sum -  nocc_ = 0.05172530
 On Iteration in Bisection 6
 a: 0.05173  b:-0.03717

 -0.21577 = (-0.22293 + -0.20862)/2.0
 sum -  nocc_ = 0.00728820
 On Iteration in Bisection 7
 a: 0.00729  b:-0.03717

 -0.21935 = (-0.22293 + -0.21577)/2.0
 sum -  nocc_ = -0.01494305
 On Iteration in Bisection 8
 a: -0.01494  b:-0.03717

 -0.21756 = (-0.21935 + -0.21577)/2.0
 sum -  nocc_ = -0.00382770
 On Iteration in Bisection 9
 a: -0.00383  b:-0.01494

 -0.21667 = (-0.21756 + -0.21577)/2.0
 sum -  nocc_ = 0.00173028
 On Iteration in Bisection 10
 a: 0.00173  b:-0.00383

 -0.21712 = (-0.21756 + -0.21667)/2.0
 sum -  nocc_ = -0.00104872
 On Iteration in Bisection 11
 a: -0.00105  b:-0.00383

 -0.21689 = (-0.21712 + -0.21667)/2.0
 sum -  nocc_ = 0.00034078
 On Iteration in Bisection 12
 a: 0.00034  b:-0.00105

 -0.21700 = (-0.21712 + -0.21689)/2.0
 sum -  nocc_ = -0.00035397
 On Iteration in Bisection 13
 a: -0.00035  b:-0.00105

 -0.21695 = (-0.21700 + -0.21689)/2.0
 sum -  nocc_ = -0.00000659
 On Iteration in Bisection 14
 a: -0.00001  b:-0.00035

 -0.21692 = (-0.21695 + -0.21689)/2.0
 sum -  nocc_ = 0.00016710
 On Iteration in Bisection 15
 a: 0.00017  b:-0.00001

 -0.21693 = (-0.21695 + -0.21692)/2.0
 sum -  nocc_ = 0.00008025
 On Iteration in Bisection 16
 a: 0.00008  b:-0.00001

 -0.21694 = (-0.21695 + -0.21693)/2.0
 sum -  nocc_ = 0.00003683
 On Iteration in Bisection 17
 a: 0.00004  b:-0.00001

 -0.21694 = (-0.21695 + -0.21694)/2.0
 sum -  nocc_ = 0.00001512
 On Iteration in Bisection 18
 a: 0.00002  b:-0.00001

 -0.21695 = (-0.21695 + -0.21694)/2.0
 sum -  nocc_ = 0.00000426
 On Iteration in Bisection 19
 a: 0.00000  b:-0.00001

 -0.21695 = (-0.21695 + -0.21695)/2.0
 sum -  nocc_ = -0.00000116
 On Iteration in Bisection 20
 a: -0.00000  b:-0.00001

 -0.21695 = (-0.21695 + -0.21695)/2.0
 sum -  nocc_ = 0.00000155
 On Iteration in Bisection 21
 a: 0.00000  b:-0.00000

 -0.21695 = (-0.21695 + -0.21695)/2.0
 sum -  nocc_ = 0.00000019
 On Iteration in Bisection 22
 a: 0.00000  b:-0.00000

 -0.21695 = (-0.21695 + -0.21695)/2.0
 sum -  nocc_ = -0.00000049
 On Iteration in Bisection 23
 a: -0.00000  b:-0.00000

 -0.21695 = (-0.21695 + -0.21695)/2.0
 sum -  nocc_ = -0.00000015
 On Iteration in Bisection 24
 a: -0.00000  b:-0.00000

 -0.21695 = (-0.21695 + -0.21695)/2.0
 sum -  nocc_ = 0.00000002
 On Iteration in Bisection 25
 a: 0.00000  b:-0.00000

 -0.21695 = (-0.21695 + -0.21695)/2.0
 sum -  nocc_ = -0.00000006
 On Iteration in Bisection 26
 a: -0.00000  b:-0.00000

 -0.21695 = (-0.21695 + -0.21695)/2.0
 sum -  nocc_ = -0.00000002
 On Iteration in Bisection 27
 a: -0.00000  b:-0.00000

 -0.21695 = (-0.21695 + -0.21695)/2.0
 sum -  nocc_ = 0.00000000
 ef = -0.21695 sum = 1.00000 

 Iter: 7  T:    20000.000  val:-0.216947  sumni 0.00000
 ne = 1.0000

 iter:8  failiter:8  energy:     -0.931949926493  total:     -0.742958066283  error:     -0.001085230661
 In Bisection function HOMO = -0.281  LUMO =  1.533

 0.62587 = (-0.28113 + 1.53287)/2.0
 sum -  nocc_ = 1.90155931
 On Iteration in Bisection 0
 a: 1.90156  b:-0.38251

 0.17237 = (-0.28113 + 0.62587)/2.0
 sum -  nocc_ = 0.99512696
 On Iteration in Bisection 1
 a: 0.99513  b:-0.38251

 -0.05438 = (-0.28113 + 0.17237)/2.0
 sum -  nocc_ = 0.79985252
 On Iteration in Bisection 2
 a: 0.79985  b:-0.38251

 -0.16776 = (-0.28113 + -0.05438)/2.0
 sum -  nocc_ = 0.30063656
 On Iteration in Bisection 3
 a: 0.30064  b:-0.38251

 -0.22445 = (-0.28113 + -0.16776)/2.0
 sum -  nocc_ = -0.04429168
 On Iteration in Bisection 4
 a: -0.04429  b:-0.38251

 -0.19610 = (-0.22445 + -0.16776)/2.0
 sum -  nocc_ = 0.13057798
 On Iteration in Bisection 5
 a: 0.13058  b:-0.04429

 -0.21028 = (-0.22445 + -0.19610)/2.0
 sum -  nocc_ = 0.04333497
 On Iteration in Bisection 6
 a: 0.04333  b:-0.04429

 -0.21736 = (-0.22445 + -0.21028)/2.0
 sum -  nocc_ = -0.00047891
 On Iteration in Bisection 7
 a: -0.00048  b:-0.04429

 -0.21382 = (-0.21736 + -0.21028)/2.0
 sum -  nocc_ = 0.02143390
 On Iteration in Bisection 8
 a: 0.02143  b:-0.00048

 -0.21559 = (-0.21736 + -0.21382)/2.0
 sum -  nocc_ = 0.01047821
 On Iteration in Bisection 9
 a: 0.01048  b:-0.00048

 -0.21648 = (-0.21736 + -0.21559)/2.0
 sum -  nocc_ = 0.00499974
 On Iteration in Bisection 10
 a: 0.00500  b:-0.00048

 -0.21692 = (-0.21736 + -0.21648)/2.0
 sum -  nocc_ = 0.00226042
 On Iteration in Bisection 11
 a: 0.00226  b:-0.00048

 -0.21714 = (-0.21736 + -0.21692)/2.0
 sum -  nocc_ = 0.00089076
 On Iteration in Bisection 12
 a: 0.00089  b:-0.00048

 -0.21725 = (-0.21736 + -0.21714)/2.0
 sum -  nocc_ = 0.00020592
 On Iteration in Bisection 13
 a: 0.00021  b:-0.00048

 -0.21731 = (-0.21736 + -0.21725)/2.0
 sum -  nocc_ = -0.00013649
 On Iteration in Bisection 14
 a: -0.00014  b:-0.00048

 -0.21728 = (-0.21731 + -0.21725)/2.0
 sum -  nocc_ = 0.00003472
 On Iteration in Bisection 15
 a: 0.00003  b:-0.00014

 -0.21729 = (-0.21731 + -0.21728)/2.0
 sum -  nocc_ = -0.00005089
 On Iteration in Bisection 16
 a: -0.00005  b:-0.00014

 -0.21729 = (-0.21729 + -0.21728)/2.0
 sum -  nocc_ = -0.00000809
 On Iteration in Bisection 17
 a: -0.00001  b:-0.00005

 -0.21728 = (-0.21729 + -0.21728)/2.0
 sum -  nocc_ = 0.00001332
 On Iteration in Bisection 18
 a: 0.00001  b:-0.00001

 -0.21728 = (-0.21729 + -0.21728)/2.0
 sum -  nocc_ = 0.00000261
 On Iteration in Bisection 19
 a: 0.00000  b:-0.00001

 -0.21728 = (-0.21729 + -0.21728)/2.0
 sum -  nocc_ = -0.00000274
 On Iteration in Bisection 20
 a: -0.00000  b:-0.00001

 -0.21728 = (-0.21728 + -0.21728)/2.0
 sum -  nocc_ = -0.00000006
 On Iteration in Bisection 21
 a: -0.00000  b:-0.00000

 -0.21728 = (-0.21728 + -0.21728)/2.0
 sum -  nocc_ = 0.00000128
 On Iteration in Bisection 22
 a: 0.00000  b:-0.00000

 -0.21728 = (-0.21728 + -0.21728)/2.0
 sum -  nocc_ = 0.00000061
 On Iteration in Bisection 23
 a: 0.00000  b:-0.00000

 -0.21728 = (-0.21728 + -0.21728)/2.0
 sum -  nocc_ = 0.00000027
 On Iteration in Bisection 24
 a: 0.00000  b:-0.00000

 -0.21728 = (-0.21728 + -0.21728)/2.0
 sum -  nocc_ = 0.00000011
 On Iteration in Bisection 25
 a: 0.00000  b:-0.00000

 -0.21728 = (-0.21728 + -0.21728)/2.0
 sum -  nocc_ = 0.00000002
 On Iteration in Bisection 26
 a: 0.00000  b:-0.00000

 -0.21728 = (-0.21728 + -0.21728)/2.0
 sum -  nocc_ = -0.00000002
 On Iteration in Bisection 27
 a: -0.00000  b:-0.00000

 -0.21728 = (-0.21728 + -0.21728)/2.0
 sum -  nocc_ = 0.00000000
 ef = -0.21728 sum = 1.00000 

 Iter: 8  T:    20000.000  val:-0.217284  sumni 0.00000
 ne = 1.0000

 iter:9  failiter:9  energy:     -0.932929608066  total:     -0.743937747856  error:     -0.000979681573
 In Bisection function HOMO = -0.282  LUMO =  1.519

 0.61849 = (-0.28189 + 1.51887)/2.0
 sum -  nocc_ = 1.84920214
 On Iteration in Bisection 0
 a: 1.84920  b:-0.38432

 0.16830 = (-0.28189 + 0.61849)/2.0
 sum -  nocc_ = 0.99446018
 On Iteration in Bisection 1
 a: 0.99446  b:-0.38432

 -0.05680 = (-0.28189 + 0.16830)/2.0
 sum -  nocc_ = 0.79279219
 On Iteration in Bisection 2
 a: 0.79279  b:-0.38432

 -0.16934 = (-0.28189 + -0.05680)/2.0
 sum -  nocc_ = 0.29145821
 On Iteration in Bisection 3
 a: 0.29146  b:-0.38432

 -0.22562 = (-0.28189 + -0.16934)/2.0
 sum -  nocc_ = -0.05009387
 On Iteration in Bisection 4
 a: -0.05009  b:-0.38432

 -0.19748 = (-0.22562 + -0.16934)/2.0
 sum -  nocc_ = 0.12285251
 On Iteration in Bisection 5
 a: 0.12285  b:-0.05009

 -0.21155 = (-0.22562 + -0.19748)/2.0
 sum -  nocc_ = 0.03653422
 On Iteration in Bisection 6
 a: 0.03653  b:-0.05009

 -0.21858 = (-0.22562 + -0.21155)/2.0
 sum -  nocc_ = -0.00678699
 On Iteration in Bisection 7
 a: -0.00679  b:-0.05009

 -0.21507 = (-0.21858 + -0.21155)/2.0
 sum -  nocc_ = 0.01487752
 On Iteration in Bisection 8
 a: 0.01488  b:-0.00679

 -0.21682 = (-0.21858 + -0.21507)/2.0
 sum -  nocc_ = 0.00404553
 On Iteration in Bisection 9
 a: 0.00405  b:-0.00679

 -0.21770 = (-0.21858 + -0.21682)/2.0
 sum -  nocc_ = -0.00137076
 On Iteration in Bisection 10
 a: -0.00137  b:-0.00679

 -0.21726 = (-0.21770 + -0.21682)/2.0
 sum -  nocc_ = 0.00133739
 On Iteration in Bisection 11
 a: 0.00134  b:-0.00137

 -0.21748 = (-0.21770 + -0.21726)/2.0
 sum -  nocc_ = -0.00001668
 On Iteration in Bisection 12
 a: -0.00002  b:-0.00137

 -0.21737 = (-0.21748 + -0.21726)/2.0
 sum -  nocc_ = 0.00066035
 On Iteration in Bisection 13
 a: 0.00066  b:-0.00002

 -0.21743 = (-0.21748 + -0.21737)/2.0
 sum -  nocc_ = 0.00032184
 On Iteration in Bisection 14
 a: 0.00032  b:-0.00002

 -0.21746 = (-0.21748 + -0.21743)/2.0
 sum -  nocc_ = 0.00015258
 On Iteration in Bisection 15
 a: 0.00015  b:-0.00002

 -0.21747 = (-0.21748 + -0.21746)/2.0
 sum -  nocc_ = 0.00006795
 On Iteration in Bisection 16
 a: 0.00007  b:-0.00002

 -0.21748 = (-0.21748 + -0.21747)/2.0
 sum -  nocc_ = 0.00002563
 On Iteration in Bisection 17
 a: 0.00003  b:-0.00002

 -0.21748 = (-0.21748 + -0.21748)/2.0
 sum -  nocc_ = 0.00000448
 On Iteration in Bisection 18
 a: 0.00000  b:-0.00002

 -0.21748 = (-0.21748 + -0.21748)/2.0
 sum -  nocc_ = -0.00000610
 On Iteration in Bisection 19
 a: -0.00001  b:-0.00002

 -0.21748 = (-0.21748 + -0.21748)/2.0
 sum -  nocc_ = -0.00000081
 On Iteration in Bisection 20
 a: -0.00000  b:-0.00001

 -0.21748 = (-0.21748 + -0.21748)/2.0
 sum -  nocc_ = 0.00000183
 On Iteration in Bisection 21
 a: 0.00000  b:-0.00000

 -0.21748 = (-0.21748 + -0.21748)/2.0
 sum -  nocc_ = 0.00000051
 On Iteration in Bisection 22
 a: 0.00000  b:-0.00000

 -0.21748 = (-0.21748 + -0.21748)/2.0
 sum -  nocc_ = -0.00000015
 On Iteration in Bisection 23
 a: -0.00000  b:-0.00000

 -0.21748 = (-0.21748 + -0.21748)/2.0
 sum -  nocc_ = 0.00000018
 On Iteration in Bisection 24
 a: 0.00000  b:-0.00000

 -0.21748 = (-0.21748 + -0.21748)/2.0
 sum -  nocc_ = 0.00000001
 On Iteration in Bisection 25
 a: 0.00000  b:-0.00000

 -0.21748 = (-0.21748 + -0.21748)/2.0
 sum -  nocc_ = -0.00000007
 On Iteration in Bisection 26
 a: -0.00000  b:-0.00000

 -0.21748 = (-0.21748 + -0.21748)/2.0
 sum -  nocc_ = -0.00000003
 On Iteration in Bisection 27
 a: -0.00000  b:-0.00000

 -0.21748 = (-0.21748 + -0.21748)/2.0
 sum -  nocc_ = -0.00000001
 ef = -0.21748 sum = 1.00000 

 Iter: 9  T:    20000.000  val:-0.217481  sumni 0.00000
 ne = 1.0000

 iter:10  failiter:10  energy:     -0.933691651624  total:     -0.744699791413  error:     -0.000762043558
 In Bisection function HOMO = -0.282  LUMO =  1.509

 0.61310 = (-0.28243 + 1.50863)/2.0
 sum -  nocc_ = 1.80985430
 On Iteration in Bisection 0
 a: 1.80985  b:-0.38571

 0.16533 = (-0.28243 + 0.61310)/2.0
 sum -  nocc_ = 0.99397789
 On Iteration in Bisection 1
 a: 0.99398  b:-0.38571

 -0.05855 = (-0.28243 + 0.16533)/2.0
 sum -  nocc_ = 0.78739919
 On Iteration in Bisection 2
 a: 0.78740  b:-0.38571

 -0.17049 = (-0.28243 + -0.05855)/2.0
 sum -  nocc_ = 0.28458542
 On Iteration in Bisection 3
 a: 0.28459  b:-0.38571

 -0.22646 = (-0.28243 + -0.17049)/2.0
 sum -  nocc_ = -0.05442937
 On Iteration in Bisection 4
 a: -0.05443  b:-0.38571

 -0.19848 = (-0.22646 + -0.17049)/2.0
 sum -  nocc_ = 0.11708044
 On Iteration in Bisection 5
 a: 0.11708  b:-0.05443

 -0.21247 = (-0.22646 + -0.19848)/2.0
 sum -  nocc_ = 0.03145453
 On Iteration in Bisection 6
 a: 0.03145  b:-0.05443

 -0.21947 = (-0.22646 + -0.21247)/2.0
 sum -  nocc_ = -0.01149915
 On Iteration in Bisection 7
 a: -0.01150  b:-0.05443

 -0.21597 = (-0.21947 + -0.21247)/2.0
 sum -  nocc_ = 0.00998022
 On Iteration in Bisection 8
 a: 0.00998  b:-0.01150

 -0.21772 = (-0.21947 + -0.21597)/2.0
 sum -  nocc_ = -0.00075952
 On Iteration in Bisection 9
 a: -0.00076  b:-0.01150

 -0.21684 = (-0.21772 + -0.21597)/2.0
 sum -  nocc_ = 0.00461043
 On Iteration in Bisection 10
 a: 0.00461  b:-0.00076

 -0.21728 = (-0.21772 + -0.21684)/2.0
 sum -  nocc_ = 0.00192546
 On Iteration in Bisection 11
 a: 0.00193  b:-0.00076

 -0.21750 = (-0.21772 + -0.21728)/2.0
 sum -  nocc_ = 0.00058297
 On Iteration in Bisection 12
 a: 0.00058  b:-0.00076

 -0.21761 = (-0.21772 + -0.21750)/2.0
 sum -  nocc_ = -0.00008827
 On Iteration in Bisection 13
 a: -0.00009  b:-0.00076

 -0.21755 = (-0.21761 + -0.21750)/2.0
 sum -  nocc_ = 0.00024735
 On Iteration in Bisection 14
 a: 0.00025  b:-0.00009

 -0.21758 = (-0.21761 + -0.21755)/2.0
 sum -  nocc_ = 0.00007954
 On Iteration in Bisection 15
 a: 0.00008  b:-0.00009

 -0.21760 = (-0.21761 + -0.21758)/2.0
 sum -  nocc_ = -0.00000436
 On Iteration in Bisection 16
 a: -0.00000  b:-0.00009

 -0.21759 = (-0.21760 + -0.21758)/2.0
 sum -  nocc_ = 0.00003759
 On Iteration in Bisection 17
 a: 0.00004  b:-0.00000

 -0.21759 = (-0.21760 + -0.21759)/2.0
 sum -  nocc_ = 0.00001661
 On Iteration in Bisection 18
 a: 0.00002  b:-0.00000

 -0.21759 = (-0.21760 + -0.21759)/2.0
 sum -  nocc_ = 0.00000612
 On Iteration in Bisection 19
 a: 0.00001  b:-0.00000

 -0.21759 = (-0.21760 + -0.21759)/2.0
 sum -  nocc_ = 0.00000088
 On Iteration in Bisection 20
 a: 0.00000  b:-0.00000

 -0.21760 = (-0.21760 + -0.21759)/2.0
 sum -  nocc_ = -0.00000174
 On Iteration in Bisection 21
 a: -0.00000  b:-0.00000

 -0.21759 = (-0.21760 + -0.21759)/2.0
 sum -  nocc_ = -0.00000043
 On Iteration in Bisection 22
 a: -0.00000  b:-0.00000

 -0.21759 = (-0.21759 + -0.21759)/2.0
 sum -  nocc_ = 0.00000022
 On Iteration in Bisection 23
 a: 0.00000  b:-0.00000

 -0.21759 = (-0.21759 + -0.21759)/2.0
 sum -  nocc_ = -0.00000010
 On Iteration in Bisection 24
 a: -0.00000  b:-0.00000

 -0.21759 = (-0.21759 + -0.21759)/2.0
 sum -  nocc_ = 0.00000006
 On Iteration in Bisection 25
 a: 0.00000  b:-0.00000

 -0.21759 = (-0.21759 + -0.21759)/2.0
 sum -  nocc_ = -0.00000002
 On Iteration in Bisection 26
 a: -0.00000  b:-0.00000

 -0.21759 = (-0.21759 + -0.21759)/2.0
 sum -  nocc_ = 0.00000002
 On Iteration in Bisection 27
 a: 0.00000  b:-0.00000

 -0.21759 = (-0.21759 + -0.21759)/2.0
 sum -  nocc_ = -0.00000000
 ef = -0.21759 sum = 1.00000 

 Iter: 10  T:    20000.000  val:-0.217595  sumni 0.00000
 ne = 1.0000

 iter:11  failiter:11  energy:     -0.934236957980  total:     -0.745245097769  error:     -0.000545306356
 In Bisection function HOMO = -0.283  LUMO =  1.501

 0.60923 = (-0.28280 + 1.50127)/2.0
 sum -  nocc_ = 1.78157843
 On Iteration in Bisection 0
 a: 1.78158  b:-0.38668

 0.16321 = (-0.28280 + 0.60923)/2.0
 sum -  nocc_ = 0.99363427
 On Iteration in Bisection 1
 a: 0.99363  b:-0.38668

 -0.05980 = (-0.28280 + 0.16321)/2.0
 sum -  nocc_ = 0.78346739
 On Iteration in Bisection 2
 a: 0.78347  b:-0.38668

 -0.17130 = (-0.28280 + -0.05980)/2.0
 sum -  nocc_ = 0.27967639
 On Iteration in Bisection 3
 a: 0.27968  b:-0.38668

 -0.22705 = (-0.28280 + -0.17130)/2.0
 sum -  nocc_ = -0.05750728
 On Iteration in Bisection 4
 a: -0.05751  b:-0.38668

 -0.19918 = (-0.22705 + -0.17130)/2.0
 sum -  nocc_ = 0.11297174
 On Iteration in Bisection 5
 a: 0.11297  b:-0.05751

 -0.21311 = (-0.22705 + -0.19918)/2.0
 sum -  nocc_ = 0.02784370
 On Iteration in Bisection 6
 a: 0.02784  b:-0.05751

 -0.22008 = (-0.22705 + -0.21311)/2.0
 sum -  nocc_ = -0.01484658
 On Iteration in Bisection 7
 a: -0.01485  b:-0.05751

 -0.21660 = (-0.22008 + -0.21311)/2.0
 sum -  nocc_ = 0.00650017
 On Iteration in Bisection 8
 a: 0.00650  b:-0.01485

 -0.21834 = (-0.22008 + -0.21660)/2.0
 sum -  nocc_ = -0.00417347
 On Iteration in Bisection 9
 a: -0.00417  b:-0.01485

 -0.21747 = (-0.21834 + -0.21660)/2.0
 sum -  nocc_ = 0.00116337
 On Iteration in Bisection 10
 a: 0.00116  b:-0.00417

 -0.21791 = (-0.21834 + -0.21747)/2.0
 sum -  nocc_ = -0.00150506
 On Iteration in Bisection 11
 a: -0.00151  b:-0.00417

 -0.21769 = (-0.21791 + -0.21747)/2.0
 sum -  nocc_ = -0.00017084
 On Iteration in Bisection 12
 a: -0.00017  b:-0.00151

 -0.21758 = (-0.21769 + -0.21747)/2.0
 sum -  nocc_ = 0.00049626
 On Iteration in Bisection 13
 a: 0.00050  b:-0.00017

 -0.21763 = (-0.21769 + -0.21758)/2.0
 sum -  nocc_ = 0.00016271
 On Iteration in Bisection 14
 a: 0.00016  b:-0.00017

 -0.21766 = (-0.21769 + -0.21763)/2.0
 sum -  nocc_ = -0.00000407
 On Iteration in Bisection 15
 a: -0.00000  b:-0.00017

 -0.21765 = (-0.21766 + -0.21763)/2.0
 sum -  nocc_ = 0.00007932
 On Iteration in Bisection 16
 a: 0.00008  b:-0.00000

 -0.21765 = (-0.21766 + -0.21765)/2.0
 sum -  nocc_ = 0.00003763
 On Iteration in Bisection 17
 a: 0.00004  b:-0.00000

 -0.21766 = (-0.21766 + -0.21765)/2.0
 sum -  nocc_ = 0.00001678
 On Iteration in Bisection 18
 a: 0.00002  b:-0.00000

 -0.21766 = (-0.21766 + -0.21766)/2.0
 sum -  nocc_ = 0.00000636
 On Iteration in Bisection 19
 a: 0.00001  b:-0.00000

 -0.21766 = (-0.21766 + -0.21766)/2.0
 sum -  nocc_ = 0.00000114
 On Iteration in Bisection 20
 a: 0.00000  b:-0.00000

 -0.21766 = (-0.21766 + -0.21766)/2.0
 sum -  nocc_ = -0.00000146
 On Iteration in Bisection 21
 a: -0.00000  b:-0.00000

 -0.21766 = (-0.21766 + -0.21766)/2.0
 sum -  nocc_ = -0.00000016
 On Iteration in Bisection 22
 a: -0.00000  b:-0.00000

 -0.21766 = (-0.21766 + -0.21766)/2.0
 sum -  nocc_ = 0.00000049
 On Iteration in Bisection 23
 a: 0.00000  b:-0.00000

 -0.21766 = (-0.21766 + -0.21766)/2.0
 sum -  nocc_ = 0.00000017
 On Iteration in Bisection 24
 a: 0.00000  b:-0.00000

 -0.21766 = (-0.21766 + -0.21766)/2.0
 sum -  nocc_ = 0.00000000
 ef = -0.21766 sum = 1.00000 

 Iter: 11  T:    20000.000  val:-0.217660  sumni 0.00000
 ne = 1.0000

 iter:12  failiter:12  energy:     -0.934607073577  total:     -0.745615213366  error:     -0.000370115597
 In Bisection function HOMO = -0.283  LUMO =  1.496

 0.60653 = (-0.28305 + 1.49610)/2.0
 sum -  nocc_ = 1.76194151
 On Iteration in Bisection 0
 a: 1.76194  b:-0.38733

 0.16174 = (-0.28305 + 0.60653)/2.0
 sum -  nocc_ = 0.99339503
 On Iteration in Bisection 1
 a: 0.99340  b:-0.38733

 -0.06065 = (-0.28305 + 0.16174)/2.0
 sum -  nocc_ = 0.78070802
 On Iteration in Bisection 2
 a: 0.78071  b:-0.38733

 -0.17185 = (-0.28305 + -0.06065)/2.0
 sum -  nocc_ = 0.27629232
 On Iteration in Bisection 3
 a: 0.27629  b:-0.38733

 -0.22745 = (-0.28305 + -0.17185)/2.0
 sum -  nocc_ = -0.05961440
 On Iteration in Bisection 4
 a: -0.05961  b:-0.38733

 -0.19965 = (-0.22745 + -0.17185)/2.0
 sum -  nocc_ = 0.11014919
 On Iteration in Bisection 5
 a: 0.11015  b:-0.05961

 -0.21355 = (-0.22745 + -0.19965)/2.0
 sum -  nocc_ = 0.02536728
 On Iteration in Bisection 6
 a: 0.02537  b:-0.05961

 -0.22050 = (-0.22745 + -0.21355)/2.0
 sum -  nocc_ = -0.01714036
 On Iteration in Bisection 7
 a: -0.01714  b:-0.05961

 -0.21702 = (-0.22050 + -0.21355)/2.0
 sum -  nocc_ = 0.00411446
 On Iteration in Bisection 8
 a: 0.00411  b:-0.01714

 -0.21876 = (-0.22050 + -0.21702)/2.0
 sum -  nocc_ = -0.00651335
 On Iteration in Bisection 9
 a: -0.00651  b:-0.01714

 -0.21789 = (-0.21876 + -0.21702)/2.0
 sum -  nocc_ = -0.00119947
 On Iteration in Bisection 10
 a: -0.00120  b:-0.00651

 -0.21746 = (-0.21789 + -0.21702)/2.0
 sum -  nocc_ = 0.00145750
 On Iteration in Bisection 11
 a: 0.00146  b:-0.00120

 -0.21768 = (-0.21789 + -0.21746)/2.0
 sum -  nocc_ = 0.00012902
 On Iteration in Bisection 12
 a: 0.00013  b:-0.00120

 -0.21778 = (-0.21789 + -0.21768)/2.0
 sum -  nocc_ = -0.00053523
 On Iteration in Bisection 13
 a: -0.00054  b:-0.00120

 -0.21773 = (-0.21778 + -0.21768)/2.0
 sum -  nocc_ = -0.00020310
 On Iteration in Bisection 14
 a: -0.00020  b:-0.00054

 -0.21770 = (-0.21773 + -0.21768)/2.0
 sum -  nocc_ = -0.00003704
 On Iteration in Bisection 15
 a: -0.00004  b:-0.00020

 -0.21769 = (-0.21770 + -0.21768)/2.0
 sum -  nocc_ = 0.00004599
 On Iteration in Bisection 16
 a: 0.00005  b:-0.00004

 -0.21770 = (-0.21770 + -0.21769)/2.0
 sum -  nocc_ = 0.00000447
 On Iteration in Bisection 17
 a: 0.00000  b:-0.00004

 -0.21770 = (-0.21770 + -0.21770)/2.0
 sum -  nocc_ = -0.00001629
 On Iteration in Bisection 18
 a: -0.00002  b:-0.00004

 -0.21770 = (-0.21770 + -0.21770)/2.0
 sum -  nocc_ = -0.00000591
 On Iteration in Bisection 19
 a: -0.00001  b:-0.00002

 -0.21770 = (-0.21770 + -0.21770)/2.0
 sum -  nocc_ = -0.00000072
 On Iteration in Bisection 20
 a: -0.00000  b:-0.00001

 -0.21770 = (-0.21770 + -0.21770)/2.0
 sum -  nocc_ = 0.00000188
 On Iteration in Bisection 21
 a: 0.00000  b:-0.00000

 -0.21770 = (-0.21770 + -0.21770)/2.0
 sum -  nocc_ = 0.00000058
 On Iteration in Bisection 22
 a: 0.00000  b:-0.00000

 -0.21770 = (-0.21770 + -0.21770)/2.0
 sum -  nocc_ = -0.00000007
 On Iteration in Bisection 23
 a: -0.00000  b:-0.00000

[...]
 sum -  nocc_ = -0.00000058
 On Iteration in Bisection 22
 a: -0.00000  b:-0.00000

 -0.21774 = (-0.21774 + -0.21774)/2.0
 sum -  nocc_ = 0.00000006
 On Iteration in Bisection 23
 a: 0.00000  b:-0.00000

 -0.21774 = (-0.21774 + -0.21774)/2.0
 sum -  nocc_ = -0.00000026
 On Iteration in Bisection 24
 a: -0.00000  b:-0.00000

 -0.21774 = (-0.21774 + -0.21774)/2.0
 sum -  nocc_ = -0.00000010
 On Iteration in Bisection 25
 a: -0.00000  b:-0.00000

 -0.21774 = (-0.21774 + -0.21774)/2.0
 sum -  nocc_ = -0.00000002
 On Iteration in Bisection 26
 a: -0.00000  b:-0.00000

 -0.21774 = (-0.21774 + -0.21774)/2.0
 sum -  nocc_ = 0.00000002
 On Iteration in Bisection 27
 a: 0.00000  b:-0.00000

 -0.21774 = (-0.21774 + -0.21774)/2.0
 sum -  nocc_ = 0.00000000
 ef = -0.21774 sum = 1.00000 

 Iter: 41  T:    20000.000  val:-0.217744  sumni 0.00000
 ne = 1.0000

 iter:42  failiter:42  energy:     -0.935252237404  total:     -0.746260377193  error:     -0.000000000017
 In Bisection function HOMO = -0.283  LUMO =  1.487

 0.60173 = (-0.28345 + 1.48691)/2.0
 sum -  nocc_ = 1.72777289
 On Iteration in Bisection 0
 a: 1.72777  b:-0.38845

 0.15914 = (-0.28345 + 0.60173)/2.0
 sum -  nocc_ = 0.99297063
 On Iteration in Bisection 1
 a: 0.99297  b:-0.38845

 -0.06216 = (-0.28345 + 0.15914)/2.0
 sum -  nocc_ = 0.77576880
 On Iteration in Bisection 2
 a: 0.77577  b:-0.38845

 -0.17280 = (-0.28345 + -0.06216)/2.0
 sum -  nocc_ = 0.27034348
 On Iteration in Bisection 3
 a: 0.27034  b:-0.38845

 -0.22813 = (-0.28345 + -0.17280)/2.0
 sum -  nocc_ = -0.06329595
 On Iteration in Bisection 4
 a: -0.06330  b:-0.38845

 -0.20046 = (-0.22813 + -0.17280)/2.0
 sum -  nocc_ = 0.10520328
 On Iteration in Bisection 5
 a: 0.10520  b:-0.06330

 -0.21430 = (-0.22813 + -0.20046)/2.0
 sum -  nocc_ = 0.02103408
 On Iteration in Bisection 6
 a: 0.02103  b:-0.06330

 -0.22121 = (-0.22813 + -0.21430)/2.0
 sum -  nocc_ = -0.02115108
 On Iteration in Bisection 7
 a: -0.02115  b:-0.06330

 -0.21775 = (-0.22121 + -0.21430)/2.0
 sum -  nocc_ = -0.00005852
 On Iteration in Bisection 8
 a: -0.00006  b:-0.02115

 -0.21602 = (-0.21775 + -0.21430)/2.0
 sum -  nocc_ = 0.01048840
 On Iteration in Bisection 9
 a: 0.01049  b:-0.00006

 -0.21689 = (-0.21775 + -0.21602)/2.0
 sum -  nocc_ = 0.00521502
 On Iteration in Bisection 10
 a: 0.00522  b:-0.00006

 -0.21732 = (-0.21775 + -0.21689)/2.0
 sum -  nocc_ = 0.00257826
 On Iteration in Bisection 11
 a: 0.00258  b:-0.00006

 -0.21754 = (-0.21775 + -0.21732)/2.0
 sum -  nocc_ = 0.00125987
 On Iteration in Bisection 12
 a: 0.00126  b:-0.00006

 -0.21765 = (-0.21775 + -0.21754)/2.0
 sum -  nocc_ = 0.00060067
 On Iteration in Bisection 13
 a: 0.00060  b:-0.00006

 -0.21770 = (-0.21775 + -0.21765)/2.0
 sum -  nocc_ = 0.00027108
 On Iteration in Bisection 14
 a: 0.00027  b:-0.00006

 -0.21773 = (-0.21775 + -0.21770)/2.0
 sum -  nocc_ = 0.00010628
 On Iteration in Bisection 15
 a: 0.00011  b:-0.00006

 -0.21774 = (-0.21775 + -0.21773)/2.0
 sum -  nocc_ = 0.00002388
 On Iteration in Bisection 16
 a: 0.00002  b:-0.00006

 -0.21775 = (-0.21775 + -0.21774)/2.0
 sum -  nocc_ = -0.00001732
 On Iteration in Bisection 17
 a: -0.00002  b:-0.00006

 -0.21774 = (-0.21775 + -0.21774)/2.0
 sum -  nocc_ = 0.00000328
 On Iteration in Bisection 18
 a: 0.00000  b:-0.00002

 -0.21775 = (-0.21775 + -0.21774)/2.0
 sum -  nocc_ = -0.00000702
 On Iteration in Bisection 19
 a: -0.00001  b:-0.00002

 -0.21774 = (-0.21775 + -0.21774)/2.0
 sum -  nocc_ = -0.00000187
 On Iteration in Bisection 20
 a: -0.00000  b:-0.00001

 -0.21774 = (-0.21774 + -0.21774)/2.0
 sum -  nocc_ = 0.00000070
 On Iteration in Bisection 21
 a: 0.00000  b:-0.00000

 -0.21774 = (-0.21774 + -0.21774)/2.0
 sum -  nocc_ = -0.00000058
 On Iteration in Bisection 22
 a: -0.00000  b:-0.00000

 -0.21774 = (-0.21774 + -0.21774)/2.0
 sum -  nocc_ = 0.00000006
 On Iteration in Bisection 23
 a: 0.00000  b:-0.00000

 -0.21774 = (-0.21774 + -0.21774)/2.0
 sum -  nocc_ = -0.00000026
 On Iteration in Bisection 24
 a: -0.00000  b:-0.00000

 -0.21774 = (-0.21774 + -0.21774)/2.0
 sum -  nocc_ = -0.00000010
 On Iteration in Bisection 25
 a: -0.00000  b:-0.00000

 -0.21774 = (-0.21774 + -0.21774)/2.0
 sum -  nocc_ = -0.00000002
 On Iteration in Bisection 26
 a: -0.00000  b:-0.00000

 -0.21774 = (-0.21774 + -0.21774)/2.0
 sum -  nocc_ = 0.00000002
 On Iteration in Bisection 27
 a: 0.00000  b:-0.00000

 -0.21774 = (-0.21774 + -0.21774)/2.0
 sum -  nocc_ = 0.00000000
 ef = -0.21774 sum = 1.00000 

 Iter: 42  T:    20000.000  val:-0.217744  sumni 0.00000
 ne = 1.0000

 iter:43  failiter:43  energy:     -0.935252237412  total:     -0.746260377202  error:     -0.000000000009
 In Bisection function HOMO = -0.283  LUMO =  1.487

 0.60173 = (-0.28345 + 1.48691)/2.0
 sum -  nocc_ = 1.72777289
 On Iteration in Bisection 0
 a: 1.72777  b:-0.38845

 0.15914 = (-0.28345 + 0.60173)/2.0
 sum -  nocc_ = 0.99297063
 On Iteration in Bisection 1
 a: 0.99297  b:-0.38845

 -0.06216 = (-0.28345 + 0.15914)/2.0
 sum -  nocc_ = 0.77576880
 On Iteration in Bisection 2
 a: 0.77577  b:-0.38845

 -0.17280 = (-0.28345 + -0.06216)/2.0
 sum -  nocc_ = 0.27034348
 On Iteration in Bisection 3
 a: 0.27034  b:-0.38845

 -0.22813 = (-0.28345 + -0.17280)/2.0
 sum -  nocc_ = -0.06329595
 On Iteration in Bisection 4
 a: -0.06330  b:-0.38845

 -0.20046 = (-0.22813 + -0.17280)/2.0
 sum -  nocc_ = 0.10520328
 On Iteration in Bisection 5
 a: 0.10520  b:-0.06330

 -0.21430 = (-0.22813 + -0.20046)/2.0
 sum -  nocc_ = 0.02103408
 On Iteration in Bisection 6
 a: 0.02103  b:-0.06330

 -0.22121 = (-0.22813 + -0.21430)/2.0
 sum -  nocc_ = -0.02115108
 On Iteration in Bisection 7
 a: -0.02115  b:-0.06330

 -0.21775 = (-0.22121 + -0.21430)/2.0
 sum -  nocc_ = -0.00005852
 On Iteration in Bisection 8
 a: -0.00006  b:-0.02115

 -0.21602 = (-0.21775 + -0.21430)/2.0
 sum -  nocc_ = 0.01048840
 On Iteration in Bisection 9
 a: 0.01049  b:-0.00006

 -0.21689 = (-0.21775 + -0.21602)/2.0
 sum -  nocc_ = 0.00521502
 On Iteration in Bisection 10
 a: 0.00522  b:-0.00006

 -0.21732 = (-0.21775 + -0.21689)/2.0
 sum -  nocc_ = 0.00257826
 On Iteration in Bisection 11
 a: 0.00258  b:-0.00006

 -0.21754 = (-0.21775 + -0.21732)/2.0
 sum -  nocc_ = 0.00125987
 On Iteration in Bisection 12
 a: 0.00126  b:-0.00006

 -0.21765 = (-0.21775 + -0.21754)/2.0
 sum -  nocc_ = 0.00060067
 On Iteration in Bisection 13
 a: 0.00060  b:-0.00006

 -0.21770 = (-0.21775 + -0.21765)/2.0
 sum -  nocc_ = 0.00027108
 On Iteration in Bisection 14
 a: 0.00027  b:-0.00006

 -0.21773 = (-0.21775 + -0.21770)/2.0
 sum -  nocc_ = 0.00010628
 On Iteration in Bisection 15
 a: 0.00011  b:-0.00006

 -0.21774 = (-0.21775 + -0.21773)/2.0
 sum -  nocc_ = 0.00002388
 On Iteration in Bisection 16
 a: 0.00002  b:-0.00006

 -0.21775 = (-0.21775 + -0.21774)/2.0
 sum -  nocc_ = -0.00001732
 On Iteration in Bisection 17
 a: -0.00002  b:-0.00006

 -0.21774 = (-0.21775 + -0.21774)/2.0
 sum -  nocc_ = 0.00000328
 On Iteration in Bisection 18
 a: 0.00000  b:-0.00002

 -0.21775 = (-0.21775 + -0.21774)/2.0
 sum -  nocc_ = -0.00000702
 On Iteration in Bisection 19
 a: -0.00001  b:-0.00002

 -0.21774 = (-0.21775 + -0.21774)/2.0
 sum -  nocc_ = -0.00000187
 On Iteration in Bisection 20
 a: -0.00000  b:-0.00001

 -0.21774 = (-0.21774 + -0.21774)/2.0
 sum -  nocc_ = 0.00000070
 On Iteration in Bisection 21
 a: 0.00000  b:-0.00000

 -0.21774 = (-0.21774 + -0.21774)/2.0
 sum -  nocc_ = -0.00000058
 On Iteration in Bisection 22
 a: -0.00000  b:-0.00000

 -0.21774 = (-0.21774 + -0.21774)/2.0
 sum -  nocc_ = 0.00000006
 On Iteration in Bisection 23
 a: 0.00000  b:-0.00000

 -0.21774 = (-0.21774 + -0.21774)/2.0
 sum -  nocc_ = -0.00000026
 On Iteration in Bisection 24
 a: -0.00000  b:-0.00000

 -0.21774 = (-0.21774 + -0.21774)/2.0
 sum -  nocc_ = -0.00000010
 On Iteration in Bisection 25
 a: -0.00000  b:-0.00000

 -0.21774 = (-0.21774 + -0.21774)/2.0
 sum -  nocc_ = -0.00000002
 On Iteration in Bisection 26
 a: -0.00000  b:-0.00000

 -0.21774 = (-0.21774 + -0.21774)/2.0
 sum -  nocc_ = 0.00000002
 On Iteration in Bisection 27
 a: 0.00000  b:-0.00000

 -0.21774 = (-0.21774 + -0.21774)/2.0
 sum -  nocc_ = 0.00000000
 ef = -0.21774 sum = 1.00000 

 Iter: 43  T:    20000.000  val:-0.217744  sumni 0.00000
 ne = 1.0000

 iter:44  failiter:44  energy:     -0.935252237417  total:     -0.746260377207  error:     -0.000000000005
 In Bisection function HOMO = -0.283  LUMO =  1.487

 0.60173 = (-0.28345 + 1.48691)/2.0
 sum -  nocc_ = 1.72777289
 On Iteration in Bisection 0
 a: 1.72777  b:-0.38845

 0.15914 = (-0.28345 + 0.60173)/2.0
 sum -  nocc_ = 0.99297063
 On Iteration in Bisection 1
 a: 0.99297  b:-0.38845

 -0.06216 = (-0.28345 + 0.15914)/2.0
 sum -  nocc_ = 0.77576880
 On Iteration in Bisection 2
 a: 0.77577  b:-0.38845

 -0.17280 = (-0.28345 + -0.06216)/2.0
 sum -  nocc_ = 0.27034348
 On Iteration in Bisection 3
 a: 0.27034  b:-0.38845

 -0.22813 = (-0.28345 + -0.17280)/2.0
 sum -  nocc_ = -0.06329595
 On Iteration in Bisection 4
 a: -0.06330  b:-0.38845

 -0.20046 = (-0.22813 + -0.17280)/2.0
 sum -  nocc_ = 0.10520328
 On Iteration in Bisection 5
 a: 0.10520  b:-0.06330

 -0.21430 = (-0.22813 + -0.20046)/2.0
 sum -  nocc_ = 0.02103408
 On Iteration in Bisection 6
 a: 0.02103  b:-0.06330

 -0.22121 = (-0.22813 + -0.21430)/2.0
 sum -  nocc_ = -0.02115108
 On Iteration in Bisection 7
 a: -0.02115  b:-0.06330

 -0.21775 = (-0.22121 + -0.21430)/2.0
 sum -  nocc_ = -0.00005852
 On Iteration in Bisection 8
 a: -0.00006  b:-0.02115

 -0.21602 = (-0.21775 + -0.21430)/2.0
 sum -  nocc_ = 0.01048840
 On Iteration in Bisection 9
 a: 0.01049  b:-0.00006

 -0.21689 = (-0.21775 + -0.21602)/2.0
 sum -  nocc_ = 0.00521502
 On Iteration in Bisection 10
 a: 0.00522  b:-0.00006

 -0.21732 = (-0.21775 + -0.21689)/2.0
 sum -  nocc_ = 0.00257826
 On Iteration in Bisection 11
 a: 0.00258  b:-0.00006

 -0.21754 = (-0.21775 + -0.21732)/2.0
 sum -  nocc_ = 0.00125987
 On Iteration in Bisection 12
 a: 0.00126  b:-0.00006

 -0.21765 = (-0.21775 + -0.21754)/2.0
 sum -  nocc_ = 0.00060067
 On Iteration in Bisection 13
 a: 0.00060  b:-0.00006

 -0.21770 = (-0.21775 + -0.21765)/2.0
 sum -  nocc_ = 0.00027108
 On Iteration in Bisection 14
 a: 0.00027  b:-0.00006

 -0.21773 = (-0.21775 + -0.21770)/2.0
 sum -  nocc_ = 0.00010628
 On Iteration in Bisection 15
 a: 0.00011  b:-0.00006

 -0.21774 = (-0.21775 + -0.21773)/2.0
 sum -  nocc_ = 0.00002388
 On Iteration in Bisection 16
 a: 0.00002  b:-0.00006

 -0.21775 = (-0.21775 + -0.21774)/2.0
 sum -  nocc_ = -0.00001732
 On Iteration in Bisection 17
 a: -0.00002  b:-0.00006

 -0.21774 = (-0.21775 + -0.21774)/2.0
 sum -  nocc_ = 0.00000328
 On Iteration in Bisection 18
 a: 0.00000  b:-0.00002

 -0.21775 = (-0.21775 + -0.21774)/2.0
 sum -  nocc_ = -0.00000702
 On Iteration in Bisection 19
 a: -0.00001  b:-0.00002

 -0.21774 = (-0.21775 + -0.21774)/2.0
 sum -  nocc_ = -0.00000187
 On Iteration in Bisection 20
 a: -0.00000  b:-0.00001

 -0.21774 = (-0.21774 + -0.21774)/2.0
 sum -  nocc_ = 0.00000070
 On Iteration in Bisection 21
 a: 0.00000  b:-0.00000

 -0.21774 = (-0.21774 + -0.21774)/2.0
 sum -  nocc_ = -0.00000058
 On Iteration in Bisection 22
 a: -0.00000  b:-0.00000

 -0.21774 = (-0.21774 + -0.21774)/2.0
 sum -  nocc_ = 0.00000006
 On Iteration in Bisection 23
 a: 0.00000  b:-0.00000

 -0.21774 = (-0.21774 + -0.21774)/2.0
 sum -  nocc_ = -0.00000026
 On Iteration in Bisection 24
 a: -0.00000  b:-0.00000

 -0.21774 = (-0.21774 + -0.21774)/2.0
 sum -  nocc_ = -0.00000010
 On Iteration in Bisection 25
 a: -0.00000  b:-0.00000

 -0.21774 = (-0.21774 + -0.21774)/2.0
 sum -  nocc_ = -0.00000002
 On Iteration in Bisection 26
 a: -0.00000  b:-0.00000

 -0.21774 = (-0.21774 + -0.21774)/2.0
 sum -  nocc_ = 0.00000002
 On Iteration in Bisection 27
 a: 0.00000  b:-0.00000

 -0.21774 = (-0.21774 + -0.21774)/2.0
 sum -  nocc_ = 0.00000000
 ef = -0.21774 sum = 1.00000 

 Iter: 44  T:    20000.000  val:-0.217744  sumni 0.00000
 ne = 1.0000

 iter:45  failiter:45  energy:     -0.935252237420  total:     -0.746260377209  error:     -0.000000000003
 In Bisection function HOMO = -0.283  LUMO =  1.487

 0.60173 = (-0.28345 + 1.48691)/2.0
 sum -  nocc_ = 1.72777289
 On Iteration in Bisection 0
 a: 1.72777  b:-0.38845

 0.15914 = (-0.28345 + 0.60173)/2.0
 sum -  nocc_ = 0.99297063
 On Iteration in Bisection 1
 a: 0.99297  b:-0.38845

 -0.06216 = (-0.28345 + 0.15914)/2.0
 sum -  nocc_ = 0.77576880
 On Iteration in Bisection 2
 a: 0.77577  b:-0.38845

 -0.17280 = (-0.28345 + -0.06216)/2.0
 sum -  nocc_ = 0.27034348
 On Iteration in Bisection 3
 a: 0.27034  b:-0.38845

 -0.22813 = (-0.28345 + -0.17280)/2.0
 sum -  nocc_ = -0.06329595
 On Iteration in Bisection 4
 a: -0.06330  b:-0.38845

 -0.20046 = (-0.22813 + -0.17280)/2.0
 sum -  nocc_ = 0.10520328
 On Iteration in Bisection 5
 a: 0.10520  b:-0.06330

 -0.21430 = (-0.22813 + -0.20046)/2.0
 sum -  nocc_ = 0.02103408
 On Iteration in Bisection 6
 a: 0.02103  b:-0.06330

 -0.22121 = (-0.22813 + -0.21430)/2.0
 sum -  nocc_ = -0.02115108
 On Iteration in Bisection 7
 a: -0.02115  b:-0.06330

 -0.21775 = (-0.22121 + -0.21430)/2.0
 sum -  nocc_ = -0.00005852
 On Iteration in Bisection 8
 a: -0.00006  b:-0.02115

 -0.21602 = (-0.21775 + -0.21430)/2.0
 sum -  nocc_ = 0.01048840
 On Iteration in Bisection 9
 a: 0.01049  b:-0.00006

 -0.21689 = (-0.21775 + -0.21602)/2.0
 sum -  nocc_ = 0.00521502
 On Iteration in Bisection 10
 a: 0.00522  b:-0.00006

 -0.21732 = (-0.21775 + -0.21689)/2.0
 sum -  nocc_ = 0.00257826
 On Iteration in Bisection 11
 a: 0.00258  b:-0.00006

 -0.21754 = (-0.21775 + -0.21732)/2.0
 sum -  nocc_ = 0.00125987
 On Iteration in Bisection 12
 a: 0.00126  b:-0.00006

 -0.21765 = (-0.21775 + -0.21754)/2.0
 sum -  nocc_ = 0.00060067
 On Iteration in Bisection 13
 a: 0.00060  b:-0.00006

 -0.21770 = (-0.21775 + -0.21765)/2.0
 sum -  nocc_ = 0.00027108
 On Iteration in Bisection 14
 a: 0.00027  b:-0.00006

 -0.21773 = (-0.21775 + -0.21770)/2.0
 sum -  nocc_ = 0.00010628
 On Iteration in Bisection 15
 a: 0.00011  b:-0.00006

 -0.21774 = (-0.21775 + -0.21773)/2.0
 sum -  nocc_ = 0.00002388
 On Iteration in Bisection 16
 a: 0.00002  b:-0.00006

 -0.21775 = (-0.21775 + -0.21774)/2.0
 sum -  nocc_ = -0.00001732
 On Iteration in Bisection 17
 a: -0.00002  b:-0.00006

 -0.21774 = (-0.21775 + -0.21774)/2.0
 sum -  nocc_ = 0.00000328
 On Iteration in Bisection 18
 a: 0.00000  b:-0.00002

 -0.21775 = (-0.21775 + -0.21774)/2.0
 sum -  nocc_ = -0.00000702
 On Iteration in Bisection 19
 a: -0.00001  b:-0.00002

 -0.21774 = (-0.21775 + -0.21774)/2.0
 sum -  nocc_ = -0.00000187
 On Iteration in Bisection 20
 a: -0.00000  b:-0.00001

 -0.21774 = (-0.21774 + -0.21774)/2.0
 sum -  nocc_ = 0.00000070
 On Iteration in Bisection 21
 a: 0.00000  b:-0.00000

 -0.21774 = (-0.21774 + -0.21774)/2.0
 sum -  nocc_ = -0.00000058
 On Iteration in Bisection 22
 a: -0.00000  b:-0.00000

 -0.21774 = (-0.21774 + -0.21774)/2.0
 sum -  nocc_ = 0.00000006
 On Iteration in Bisection 23
 a: 0.00000  b:-0.00000

 -0.21774 = (-0.21774 + -0.21774)/2.0
 sum -  nocc_ = -0.00000026
 On Iteration in Bisection 24
 a: -0.00000  b:-0.00000

 -0.21774 = (-0.21774 + -0.21774)/2.0
 sum -  nocc_ = -0.00000010
 On Iteration in Bisection 25
 a: -0.00000  b:-0.00000

 -0.21774 = (-0.21774 + -0.21774)/2.0
 sum -  nocc_ = -0.00000002
 On Iteration in Bisection 26
 a: -0.00000  b:-0.00000

 -0.21774 = (-0.21774 + -0.21774)/2.0
 sum -  nocc_ = 0.00000002
 On Iteration in Bisection 27
 a: 0.00000  b:-0.00000

 -0.21774 = (-0.21774 + -0.21774)/2.0
 sum -  nocc_ = -0.00000000
 ef = -0.21774 sum = 1.00000 

 Iter: 45  T:    20000.000  val:-0.217744  sumni 0.00000
 ne = 1.0000

 iter:46  failiter:46  energy:     -0.935252237421  total:     -0.746260377211  error:     -0.000000000001
 In Bisection function HOMO = -0.283  LUMO =  1.487

 0.60173 = (-0.28345 + 1.48691)/2.0
 sum -  nocc_ = 1.72777289
 On Iteration in Bisection 0
 a: 1.72777  b:-0.38845

 0.15914 = (-0.28345 + 0.60173)/2.0
 sum -  nocc_ = 0.99297063
 On Iteration in Bisection 1
 a: 0.99297  b:-0.38845

 -0.06216 = (-0.28345 + 0.15914)/2.0
 sum -  nocc_ = 0.77576880
 On Iteration in Bisection 2
 a: 0.77577  b:-0.38845

 -0.17280 = (-0.28345 + -0.06216)/2.0
 sum -  nocc_ = 0.27034348
 On Iteration in Bisection 3
 a: 0.27034  b:-0.38845

 -0.22813 = (-0.28345 + -0.17280)/2.0
 sum -  nocc_ = -0.06329595
 On Iteration in Bisection 4
 a: -0.06330  b:-0.38845

 -0.20046 = (-0.22813 + -0.17280)/2.0
 sum -  nocc_ = 0.10520328
 On Iteration in Bisection 5
 a: 0.10520  b:-0.06330

 -0.21430 = (-0.22813 + -0.20046)/2.0
 sum -  nocc_ = 0.02103408
 On Iteration in Bisection 6
 a: 0.02103  b:-0.06330

 -0.22121 = (-0.22813 + -0.21430)/2.0
 sum -  nocc_ = -0.02115108
 On Iteration in Bisection 7
 a: -0.02115  b:-0.06330

 -0.21775 = (-0.22121 + -0.21430)/2.0
 sum -  nocc_ = -0.00005852
 On Iteration in Bisection 8
 a: -0.00006  b:-0.02115

 -0.21602 = (-0.21775 + -0.21430)/2.0
 sum -  nocc_ = 0.01048840
 On Iteration in Bisection 9
 a: 0.01049  b:-0.00006

 -0.21689 = (-0.21775 + -0.21602)/2.0
 sum -  nocc_ = 0.00521502
 On Iteration in Bisection 10
 a: 0.00522  b:-0.00006

 -0.21732 = (-0.21775 + -0.21689)/2.0
 sum -  nocc_ = 0.00257826
 On Iteration in Bisection 11
 a: 0.00258  b:-0.00006

 -0.21754 = (-0.21775 + -0.21732)/2.0
 sum -  nocc_ = 0.00125987
 On Iteration in Bisection 12
 a: 0.00126  b:-0.00006

 -0.21765 = (-0.21775 + -0.21754)/2.0
 sum -  nocc_ = 0.00060067
 On Iteration in Bisection 13
 a: 0.00060  b:-0.00006

 -0.21770 = (-0.21775 + -0.21765)/2.0
 sum -  nocc_ = 0.00027108
 On Iteration in Bisection 14
 a: 0.00027  b:-0.00006

 -0.21773 = (-0.21775 + -0.21770)/2.0
 sum -  nocc_ = 0.00010628
 On Iteration in Bisection 15
 a: 0.00011  b:-0.00006

 -0.21774 = (-0.21775 + -0.21773)/2.0
 sum -  nocc_ = 0.00002388
 On Iteration in Bisection 16
 a: 0.00002  b:-0.00006

 -0.21775 = (-0.21775 + -0.21774)/2.0
 sum -  nocc_ = -0.00001732
 On Iteration in Bisection 17
 a: -0.00002  b:-0.00006

 -0.21774 = (-0.21775 + -0.21774)/2.0
 sum -  nocc_ = 0.00000328
 On Iteration in Bisection 18
 a: 0.00000  b:-0.00002

 -0.21775 = (-0.21775 + -0.21774)/2.0
 sum -  nocc_ = -0.00000702
 On Iteration in Bisection 19
 a: -0.00001  b:-0.00002

 -0.21774 = (-0.21775 + -0.21774)/2.0
 sum -  nocc_ = -0.00000187
 On Iteration in Bisection 20
 a: -0.00000  b:-0.00001

 -0.21774 = (-0.21774 + -0.21774)/2.0
 sum -  nocc_ = 0.00000070
 On Iteration in Bisection 21
 a: 0.00000  b:-0.00000

 -0.21774 = (-0.21774 + -0.21774)/2.0
 sum -  nocc_ = -0.00000058
 On Iteration in Bisection 22
 a: -0.00000  b:-0.00000

 -0.21774 = (-0.21774 + -0.21774)/2.0
 sum -  nocc_ = 0.00000006
 On Iteration in Bisection 23
 a: 0.00000  b:-0.00000

 -0.21774 = (-0.21774 + -0.21774)/2.0
 sum -  nocc_ = -0.00000026
 On Iteration in Bisection 24
 a: -0.00000  b:-0.00000

 -0.21774 = (-0.21774 + -0.21774)/2.0
 sum -  nocc_ = -0.00000010
 On Iteration in Bisection 25
 a: -0.00000  b:-0.00000

 -0.21774 = (-0.21774 + -0.21774)/2.0
 sum -  nocc_ = -0.00000002
 On Iteration in Bisection 26
 a: -0.00000  b:-0.00000

 -0.21774 = (-0.21774 + -0.21774)/2.0
 sum -  nocc_ = 0.00000002
 On Iteration in Bisection 27
 a: 0.00000  b:-0.00000

 -0.21774 = (-0.21774 + -0.21774)/2.0
 sum -  nocc_ = -0.00000000
 ef = -0.21774 sum = 1.00000 

 Iter: 46  T:    20000.000  val:-0.217744  sumni 0.00000
 ne = 1.0000

 iter:47  failiter:47  energy:     -0.935252237422  total:     -0.746260377211  error:     -0.000000000001
 FTHFEnergy =    -0.746260
 FD_dis[0] = 0.73836426 with -0.283450 eig value
 FD_dis[1] = 0.26163265 with -0.152036 eig value
 FD_dis[2] = 0.00000237 with 0.602604 eig value
 FD_dis[3] = 0.00000072 with 0.677816 eig value
 FD_dis[4] = 0.00000000 with 1.465661 eig value
 FD_dis[5] = 0.00000000 with 1.465661 eig value
 FD_dis[6] = 0.00000000 with 1.467189 eig value
 FD_dis[7] = 0.00000000 with 1.467606 eig value
 FD_dis[8] = 0.00000000 with 1.467606 eig value
 FD_dis[9] = 0.00000000 with 1.486908 eig value
*** PSI4 exiting successfully. Buy a developer a beer!
