    -----------------------------------------------------------------------
          PSI4: An Open-Source Ab Initio Electronic Structure Package
                              PSI 4.0 Driver

               Git: Rev {master} 556e8139d3cfa1f96ccffe2cdf22cc56a185d2b2

    J. M. Turney, A. C. Simmonett, R. M. Parrish, E. G. Hohenstein,
    F. A. Evangelista, J. T. Fermann, B. J. Mintz, L. A. Burns, J. J. Wilke,
    M. L. Abrams, N. J. Russ, M. L. Leininger, C. L. Janssen, E. T. Seidl,
    W. D. Allen, H. F. Schaefer, R. A. King, E. F. Valeev, C. D. Sherrill,
    and T. D. Crawford, WIREs Comput. Mol. Sci. 2, 556-565 (2012)
    (doi: 10.1002/wcms.93)

                         Additional Contributions by
    A. E. DePrince, M. Saitow, U. Bozkaya, A. Yu. Sokolov
    -----------------------------------------------------------------------

    Process ID:  14557
    PSI4DATADIR: /Users/kevinhannon/Programs/psi4cmake/psi4/lib
    Memory level set to 256.000 MB

  ==> Input File <==

--------------------------------------------------------------------------

# PYTHONPATH must include directory above plugin directory.
#     Define either externally or here, then import plugin.
sys.path.insert(0, '/Users/kevinhannon/Programs/Quantum_Programs/Quantum-Programs/GS/')
import scf

molecule {
0 1
H
H 1 0.60000
symmetry c1
units angstrom
}


set {
  basis cc-pvdz
  reference rhf
  scf_type  pk
}

set scf {
  DO_FTHF true
  MAX_ITER 130
  MAX_TEMP 20000
  TEMP_INCREMENT 0
  bisect  true
  bisect_iter  40
}
energy('rhf')
energy('scf')


--------------------------------------------------------------------------

*** tstart() called on Kevins-MacBook-Pro.local
*** at Sun Apr 12 15:45:54 2015

/Users/kevinhannon/Programs/Quantum_Programs/Quantum-Programs/GS/scf/scf.so loaded.

*** tstart() called on Kevins-MacBook-Pro.local
*** at Sun Apr 12 15:45:54 2015


         ---------------------------------------------------------
                                   SCF
            by Justin Turney, Rob Parrish, and Andy Simmonett
                              RHF Reference
                        1 Threads,    256 MiB Core
         ---------------------------------------------------------

  ==> Geometry <==

    Molecular point group: c1
    Full point group: D_inf_h

    Geometry (in Angstrom), charge = 0, multiplicity = 1:

       Center              X                  Y                   Z       
    ------------   -----------------  -----------------  -----------------
           H          0.000000000000     0.000000000000    -0.300000000000
           H          0.000000000000     0.000000000000     0.300000000000

  Running in c1 symmetry.

  Rotational constants: A = ************  B =     92.92634  C =     92.92634 [cm^-1]
  Rotational constants: A = ************  B = 2785861.68186  C = 2785861.68186 [MHz]
  Nuclear repulsion =    0.881962014316667

  Charge       = 0
  Multiplicity = 1
  Electrons    = 2
  Nalpha       = 1
  Nbeta        = 1

  ==> Algorithm <==

  SCF Algorithm Type is PK.
  DIIS enabled.
  MOM disabled.
  Fractional occupation disabled.
  Guess Type is CORE.
  Energy threshold   = 1.00e-06
  Density threshold  = 1.00e-06
  Integral threshold = 0.00e+00

  ==> Primary Basis <==

  Basis Set: CC-PVDZ
    Number of shells: 6
    Number of basis function: 10
    Number of Cartesian functions: 10
    Spherical Harmonics?: true
    Max angular momentum: 1

  ==> Pre-Iterations <==

   -------------------------------------------------------
    Irrep   Nso     Nmo     Nalpha   Nbeta   Ndocc  Nsocc
   -------------------------------------------------------
     A         10      10       0       0       0       0
   -------------------------------------------------------
    Total      10      10       1       1       1       0
   -------------------------------------------------------

  Starting with a DF guess...

 OEINTS: Overlap, kinetic, potential, dipole, and quadrupole integrals
         stored in file 35.

  ==> Integral Setup <==

  ==> DFJK: Density-Fitted J/K Matrices <==

    J tasked:                  Yes
    K tasked:                  Yes
    wK tasked:                  No
    OpenMP threads:              1
    Integrals threads:           1
    Memory (MB):               183
    Algorithm:                Core
    Integral Cache:           NONE
    Schwarz Cutoff:          1E-12
    Fitting Condition:       1E-12

   => Auxiliary Basis Set <=

  Basis Set: 
    Number of shells: 18
    Number of basis function: 46
    Number of Cartesian functions: 50
    Spherical Harmonics?: true
    Max angular momentum: 2

  Minimum eigenvalue in the overlap matrix is 2.0282245089E-02.
  Using Symmetric Orthogonalization.
  SCF Guess: Core (One-Electron) Hamiltonian.

  ==> Iterations <==

                           Total Energy        Delta E     RMS |[F,P]|

   @DF-RHF iter   1:    -1.05402082062626   -1.05402e+00   2.27724e-02 
   @DF-RHF iter   2:    -1.10484001789040   -5.08192e-02   4.34980e-03 DIIS
   @DF-RHF iter   3:    -1.10689096182727   -2.05094e-03   2.43146e-04 DIIS
   @DF-RHF iter   4:    -1.10689414457805   -3.18275e-06   1.94685e-05 DIIS
   @DF-RHF iter   5:    -1.10689418661776   -4.20397e-08   5.27016e-08 DIIS

  DF guess converged.

  ==> Integral Setup <==

 MINTS: Wrapper to libmints.
   by Justin Turney

   Calculation information:
      Number of atoms:                   2
      Number of AO shells:               6
      Number of SO shells:               6
      Number of primitives:             10
      Number of atomic orbitals:        10
      Number of basis functions:        10

      Number of irreps:                  1
      Integral cutoff                 0.00e+00
      Number of functions per irrep: [  10 ]

 OEINTS: Overlap, kinetic, potential, dipole, and quadrupole integrals
         stored in file 35.

      Computing two-electron integrals...done
      Computed 512 non-zero two-electron integrals.
        Stored in file 33.

	Batch   1 pq = [       0,      55] index = [             0,1540]
  ==> DiskJK: Disk-Based J/K Matrices <==

    J tasked:                  Yes
    K tasked:                  Yes
    wK tasked:                  No
    Memory (MB):               183
    Schwarz Cutoff:          1E-12

   @RHF iter   6:    -1.10689247605546    1.71056e-06   3.54949e-07 DIIS
   @RHF iter   7:    -1.10689247606714   -1.16858e-11   5.90193e-08 DIIS

  ==> Post-Iterations <==

    Orbital Energies (a.u.)
    -----------------------

    Doubly Occupied:                                                      

       1A     -0.638794  

    Virtual:                                                              

       2A      0.222604     3A      0.445469     4A      1.057535  
       5A      1.313546     6A      1.313546     7A      2.078266  
       8A      2.138016     9A      2.138016    10A      4.802344  

    Final Occupation by Irrep:
              A 
    DOCC [     1 ]

  Energy converged.

  @RHF Final Energy:    -1.10689247606714

   => Energetics <=

    Nuclear Repulsion Energy =              0.8819620143166668
    One-Electron Energy =                  -2.7001211369648512
    Two-Electron Energy =                   0.7112666465810411
    DFT Exchange-Correlation Energy =       0.0000000000000000
    Empirical Dispersion Energy =           0.0000000000000000
    PCM Polarization Energy =               0.0000000000000000
    EFP Energy =                            0.0000000000000000
    Total Energy =                         -1.1068924760671435

    Alert: EFP and PCM quantities not currently incorporated into SCF psivars.

Properties will be evaluated at   0.000000,   0.000000,   0.000000 Bohr
  ==> Properties <==


Properties computed using the SCF density matrix

  Nuclear Dipole Moment: (a.u.)
     X:     0.0000      Y:     0.0000      Z:     0.0000

  Electronic Dipole Moment: (a.u.)
     X:    -0.0000      Y:     0.0000      Z:    -0.0000

  Dipole Moment: (a.u.)
     X:    -0.0000      Y:     0.0000      Z:    -0.0000     Total:     0.0000

  Dipole Moment: (Debye)
     X:    -0.0000      Y:     0.0000      Z:    -0.0000     Total:     0.0000


  Saving occupied orbitals to File 180.

*** tstop() called on Kevins-MacBook-Pro.local at Sun Apr 12 15:45:54 2015
Module time:
	user time   =       0.19 seconds =       0.00 minutes
	system time =       0.01 seconds =       0.00 minutes
	total time  =          0 seconds =       0.00 minutes
Total time:
	user time   =       0.21 seconds =       0.00 minutes
	system time =       0.02 seconds =       0.00 minutes
	total time  =          0 seconds =       0.00 minutes

*** tstart() called on Kevins-MacBook-Pro.local
*** at Sun Apr 12 15:45:54 2015


         ---------------------------------------------------------
                                   SCF
            by Justin Turney, Rob Parrish, and Andy Simmonett
                              RHF Reference
                        1 Threads,    256 MiB Core
         ---------------------------------------------------------

  ==> Geometry <==

    Molecular point group: c1
    Full point group: D_inf_h

    Geometry (in Angstrom), charge = 0, multiplicity = 1:

       Center              X                  Y                   Z       
    ------------   -----------------  -----------------  -----------------
           H          0.000000000000     0.000000000000    -0.300000000000
           H          0.000000000000     0.000000000000     0.300000000000

  Running in c1 symmetry.

  Rotational constants: A = ************  B =     92.92634  C =     92.92634 [cm^-1]
  Rotational constants: A = ************  B = 2785861.68186  C = 2785861.68186 [MHz]
  Nuclear repulsion =    0.881962014316667

  Charge       = 0
  Multiplicity = 1
  Electrons    = 2
  Nalpha       = 1
  Nbeta        = 1

  ==> Algorithm <==

  SCF Algorithm Type is PK.
  DIIS enabled.
  MOM disabled.
  Fractional occupation disabled.
  Guess Type is CORE.
  Energy threshold   = 1.00e-08
  Density threshold  = 1.00e-08
  Integral threshold = 0.00e+00

  ==> Primary Basis <==

  Basis Set: CC-PVDZ
    Number of shells: 6
    Number of basis function: 10
    Number of Cartesian functions: 10
    Spherical Harmonics?: true
    Max angular momentum: 1

  ==> Pre-Iterations <==

   -------------------------------------------------------
    Irrep   Nso     Nmo     Nalpha   Nbeta   Ndocc  Nsocc
   -------------------------------------------------------
     A         10      10       0       0       0       0
   -------------------------------------------------------
    Total      10      10       1       1       1       0
   -------------------------------------------------------

  Starting with a DF guess...

 OEINTS: Overlap, kinetic, potential, dipole, and quadrupole integrals
         stored in file 35.

  ==> Integral Setup <==

  ==> DFJK: Density-Fitted J/K Matrices <==

    J tasked:                  Yes
    K tasked:                  Yes
    wK tasked:                  No
    OpenMP threads:              1
    Integrals threads:           1
    Memory (MB):               183
    Algorithm:                Core
    Integral Cache:           NONE
    Schwarz Cutoff:          1E-12
    Fitting Condition:       1E-12

   => Auxiliary Basis Set <=

  Basis Set: 
    Number of shells: 18
    Number of basis function: 46
    Number of Cartesian functions: 50
    Spherical Harmonics?: true
    Max angular momentum: 2

  Minimum eigenvalue in the overlap matrix is 2.0282245089E-02.
  Using Symmetric Orthogonalization.
  SCF Guess: Core (One-Electron) Hamiltonian.

  ==> Iterations <==

                           Total Energy        Delta E     RMS |[F,P]|

   @DF-RHF iter   1:    -1.05402082062626   -1.05402e+00   2.27724e-02 
   @DF-RHF iter   2:    -1.10484001789040   -5.08192e-02   4.34980e-03 DIIS
   @DF-RHF iter   3:    -1.10689096182727   -2.05094e-03   2.43146e-04 DIIS
   @DF-RHF iter   4:    -1.10689414457805   -3.18275e-06   1.94685e-05 DIIS
   @DF-RHF iter   5:    -1.10689418661776   -4.20397e-08   5.27016e-08 DIIS
   @DF-RHF iter   6:    -1.10689418661807   -3.12639e-13   6.27127e-11 DIIS

  DF guess converged.

  ==> Integral Setup <==

 MINTS: Wrapper to libmints.
   by Justin Turney

   Calculation information:
      Number of atoms:                   2
      Number of AO shells:               6
      Number of SO shells:               6
      Number of primitives:             10
      Number of atomic orbitals:        10
      Number of basis functions:        10

      Number of irreps:                  1
      Integral cutoff                 0.00e+00
      Number of functions per irrep: [  10 ]

 OEINTS: Overlap, kinetic, potential, dipole, and quadrupole integrals
         stored in file 35.

      Computing two-electron integrals...done
      Computed 512 non-zero two-electron integrals.
        Stored in file 33.

	Batch   1 pq = [       0,      55] index = [             0,1540]
  ==> DiskJK: Disk-Based J/K Matrices <==

    J tasked:                  Yes
    K tasked:                  Yes
    wK tasked:                  No
    Memory (MB):               183
    Schwarz Cutoff:          1E-12

   @RHF iter   7:    -1.10689247605546    1.71056e-06   3.54890e-07 DIIS
   @RHF iter   8:    -1.10689247606714   -1.16835e-11   5.90082e-08 DIIS
   @RHF iter   9:    -1.10689247606752   -3.77032e-13   3.25342e-09 DIIS

  ==> Post-Iterations <==

    Orbital Energies (a.u.)
    -----------------------

    Doubly Occupied:                                                      

       1A     -0.638794  

    Virtual:                                                              

       2A      0.222604     3A      0.445469     4A      1.057535  
       5A      1.313546     6A      1.313546     7A      2.078266  
       8A      2.138016     9A      2.138016    10A      4.802343  

    Final Occupation by Irrep:
              A 
    DOCC [     1 ]

  Energy converged.

  @RHF Final Energy:    -1.10689247606752

   => Energetics <=

    Nuclear Repulsion Energy =              0.8819620143166668
    One-Electron Energy =                  -2.7001208341429725
    Two-Electron Energy =                   0.7112663437587863
    DFT Exchange-Correlation Energy =       0.0000000000000000
    Empirical Dispersion Energy =           0.0000000000000000
    PCM Polarization Energy =               0.0000000000000000
    EFP Energy =                            0.0000000000000000
    Total Energy =                         -1.1068924760675196

    Alert: EFP and PCM quantities not currently incorporated into SCF psivars.

Properties will be evaluated at   0.000000,   0.000000,   0.000000 Bohr
  ==> Properties <==


Properties computed using the SCF density matrix

  Nuclear Dipole Moment: (a.u.)
     X:     0.0000      Y:     0.0000      Z:     0.0000

  Electronic Dipole Moment: (a.u.)
     X:     0.0000      Y:    -0.0000      Z:     0.0000

  Dipole Moment: (a.u.)
     X:     0.0000      Y:    -0.0000      Z:     0.0000     Total:     0.0000

  Dipole Moment: (Debye)
     X:     0.0000      Y:    -0.0000      Z:     0.0000     Total:     0.0000


  Saving occupied orbitals to File 180.

*** tstop() called on Kevins-MacBook-Pro.local at Sun Apr 12 15:45:55 2015
Module time:
	user time   =       0.19 seconds =       0.00 minutes
	system time =       0.01 seconds =       0.00 minutes
	total time  =          1 seconds =       0.02 minutes
Total time:
	user time   =       0.41 seconds =       0.01 minutes
	system time =       0.03 seconds =       0.00 minutes
	total time  =          1 seconds =       0.02 minutes
Reading options from the SCF block
Calling plugin scf.so.
    Molecular point group: c1
    Full point group: D_inf_h

    Geometry (in Angstrom), charge = 0, multiplicity = 1:

       Center              X                  Y                   Z       
    ------------   -----------------  -----------------  -----------------
           H          0.000000000000     0.000000000000    -0.300000000000
           H          0.000000000000     0.000000000000     0.300000000000


    Nuclear repulsion energy:       0.88196201

  ## Overlap (Symmetry 0) ##
  Irrep: 1 Size: 10 x 10

                 1                   2                   3                   4                   5

    1     1.00000000000000     0.68486025149275     0.00000000000000     0.00000000000000     0.00000000000000
    2     0.68486025149275     1.00000000000000     0.00000000000000     0.00000000000000     0.00000000000000
    3     0.00000000000000     0.00000000000000     1.00000000000000     0.00000000000000     0.00000000000000
    4     0.00000000000000     0.00000000000000     0.00000000000000     1.00000000000000     0.00000000000000
    5     0.00000000000000     0.00000000000000     0.00000000000000     0.00000000000000     1.00000000000000
    6     0.68476881141071     0.60385294599374     0.54818348561785     0.00000000000000     0.00000000000000
    7     0.60385294599374     0.92457548285615     0.14275009429716     0.00000000000000     0.00000000000000
    8    -0.54818348561785    -0.14275009429716     0.04097330284350     0.00000000000000     0.00000000000000
    9     0.00000000000000     0.00000000000000     0.00000000000000     0.62668607144885     0.00000000000000
   10     0.00000000000000     0.00000000000000     0.00000000000000     0.00000000000000     0.62668607144885

                 6                   7                   8                   9                  10

    1     0.68476881141071     0.60385294599374    -0.54818348561785     0.00000000000000     0.00000000000000
    2     0.60385294599374     0.92457548285615    -0.14275009429716     0.00000000000000     0.00000000000000
    3     0.54818348561785     0.14275009429716     0.04097330284350     0.00000000000000     0.00000000000000
    4     0.00000000000000     0.00000000000000     0.00000000000000     0.62668607144885     0.00000000000000
    5     0.00000000000000     0.00000000000000     0.00000000000000     0.00000000000000     0.62668607144885
    6     1.00000000000000     0.68486025149275    -0.00000000000000     0.00000000000000     0.00000000000000
    7     0.68486025149275     1.00000000000000     0.00000000000000     0.00000000000000     0.00000000000000
    8    -0.00000000000000     0.00000000000000     1.00000000000000     0.00000000000000     0.00000000000000
    9     0.00000000000000     0.00000000000000     0.00000000000000     1.00000000000000     0.00000000000000
   10     0.00000000000000     0.00000000000000     0.00000000000000     0.00000000000000     1.00000000000000



  ## Kinetic (Symmetry 0) ##
  Irrep: 1 Size: 10 x 10

                 1                   2                   3                   4                   5

    1     0.96945722711242     0.20123413106538     0.00000000000000     0.00000000000000     0.00000000000000
    2     0.20123413106538     0.18300000000000     0.00000000000000     0.00000000000000     0.00000000000000
    3     0.00000000000000     0.00000000000000     1.81750000000000     0.00000000000000     0.00000000000000
    4     0.00000000000000     0.00000000000000     0.00000000000000     1.81750000000000     0.00000000000000
    5     0.00000000000000     0.00000000000000     0.00000000000000     0.00000000000000     1.81750000000000
    6     0.40193881588927     0.16240634293717     0.76125920134824     0.00000000000000     0.00000000000000
    7     0.16240634293717     0.16035161191585     0.07055893366246     0.00000000000000     0.00000000000000
    8    -0.76125920134824    -0.07055893366246    -0.36526423059938     0.00000000000000     0.00000000000000
    9     0.00000000000000     0.00000000000000     0.00000000000000     0.92609534347024     0.00000000000000
   10     0.00000000000000     0.00000000000000     0.00000000000000     0.00000000000000     0.92609534347024

                 6                   7                   8                   9                  10

    1     0.40193881588927     0.16240634293717    -0.76125920134824     0.00000000000000     0.00000000000000
    2     0.16240634293717     0.16035161191585    -0.07055893366246     0.00000000000000     0.00000000000000
    3     0.76125920134824     0.07055893366246    -0.36526423059938     0.00000000000000     0.00000000000000
    4     0.00000000000000     0.00000000000000     0.00000000000000     0.92609534347024     0.00000000000000
    5     0.00000000000000     0.00000000000000     0.00000000000000     0.00000000000000     0.92609534347024
    6     0.96945722711242     0.20123413106538    -0.00000000000000     0.00000000000000     0.00000000000000
    7     0.20123413106538     0.18300000000000     0.00000000000000     0.00000000000000     0.00000000000000
    8    -0.00000000000000     0.00000000000000     1.81750000000000     0.00000000000000     0.00000000000000
    9     0.00000000000000     0.00000000000000     0.00000000000000     1.81750000000000     0.00000000000000
   10     0.00000000000000     0.00000000000000     0.00000000000000     0.00000000000000     1.81750000000000



  ## Potential (Symmetry 0) ##
  Irrep: 1 Size: 10 x 10

                 1                   2                   3                   4                   5

    1    -2.18057106698719    -1.13069550160364    -0.31411493949955     0.00000000000000     0.00000000000000
    2    -1.13069550160364    -1.06157504397971    -0.21331288649568     0.00000000000000     0.00000000000000
    3    -0.31411493949955    -0.21331288649568    -1.86675139464648     0.00000000000000     0.00000000000000
    4     0.00000000000000     0.00000000000000     0.00000000000000    -1.57491200882979     0.00000000000000
    5     0.00000000000000     0.00000000000000     0.00000000000000     0.00000000000000    -1.57491200882979
    6    -1.50044630400815    -1.02316686969692    -1.34502614051462     0.00000000000000     0.00000000000000
    7    -1.02316686969692    -1.00435652706160    -0.40178761271240     0.00000000000000     0.00000000000000
    8     1.34502614051462     0.40178761271240     0.10694785551753     0.00000000000000     0.00000000000000
    9     0.00000000000000     0.00000000000000     0.00000000000000    -1.04043598836449     0.00000000000000
   10     0.00000000000000     0.00000000000000     0.00000000000000     0.00000000000000    -1.04043598836449

                 6                   7                   8                   9                  10

    1    -1.50044630400815    -1.02316686969692     1.34502614051462     0.00000000000000     0.00000000000000
    2    -1.02316686969692    -1.00435652706160     0.40178761271240     0.00000000000000     0.00000000000000
    3    -1.34502614051462    -0.40178761271240     0.10694785551753     0.00000000000000     0.00000000000000
    4     0.00000000000000     0.00000000000000     0.00000000000000    -1.04043598836449     0.00000000000000
    5     0.00000000000000     0.00000000000000     0.00000000000000     0.00000000000000    -1.04043598836449
    6    -2.18057106698719    -1.13069550160364     0.31411493949955     0.00000000000000     0.00000000000000
    7    -1.13069550160364    -1.06157504397971     0.21331288649568     0.00000000000000     0.00000000000000
    8     0.31411493949955     0.21331288649568    -1.86675139464648     0.00000000000000     0.00000000000000
    9     0.00000000000000     0.00000000000000     0.00000000000000    -1.57491200882979     0.00000000000000
   10     0.00000000000000     0.00000000000000     0.00000000000000     0.00000000000000    -1.57491200882979



  ## One Electron Ints (Symmetry 0) ##
  Irrep: 1 Size: 10 x 10

                 1                   2                   3                   4                   5

    1    -1.21111383987477    -0.92946137053825    -0.31411493949955     0.00000000000000     0.00000000000000
    2    -0.92946137053825    -0.87857504397971    -0.21331288649568     0.00000000000000     0.00000000000000
    3    -0.31411493949955    -0.21331288649568    -0.04925139464648     0.00000000000000     0.00000000000000
    4     0.00000000000000     0.00000000000000     0.00000000000000     0.24258799117021     0.00000000000000
    5     0.00000000000000     0.00000000000000     0.00000000000000     0.00000000000000     0.24258799117021
    6    -1.09850748811888    -0.86076052675975    -0.58376693916638     0.00000000000000     0.00000000000000
    7    -0.86076052675975    -0.84400491514574    -0.33122867904993     0.00000000000000     0.00000000000000
    8     0.58376693916638     0.33122867904993    -0.25831637508185     0.00000000000000     0.00000000000000
    9     0.00000000000000     0.00000000000000     0.00000000000000    -0.11434064489425     0.00000000000000
   10     0.00000000000000     0.00000000000000     0.00000000000000     0.00000000000000    -0.11434064489425

                 6                   7                   8                   9                  10

    1    -1.09850748811888    -0.86076052675975     0.58376693916638     0.00000000000000     0.00000000000000
    2    -0.86076052675975    -0.84400491514574     0.33122867904993     0.00000000000000     0.00000000000000
    3    -0.58376693916638    -0.33122867904993    -0.25831637508185     0.00000000000000     0.00000000000000
    4     0.00000000000000     0.00000000000000     0.00000000000000    -0.11434064489425     0.00000000000000
    5     0.00000000000000     0.00000000000000     0.00000000000000     0.00000000000000    -0.11434064489425
    6    -1.21111383987477    -0.92946137053825     0.31411493949955     0.00000000000000     0.00000000000000
    7    -0.92946137053825    -0.87857504397971     0.21331288649568     0.00000000000000     0.00000000000000
    8     0.31411493949955     0.21331288649568    -0.04925139464648     0.00000000000000     0.00000000000000
    9     0.00000000000000     0.00000000000000     0.00000000000000     0.24258799117021     0.00000000000000
   10     0.00000000000000     0.00000000000000     0.00000000000000     0.00000000000000     0.24258799117021




	There are 0 unique integrals

  ## Fock (Symmetry 0) ##
  Irrep: 1 Size: 10 x 10

                 1                   2                   3                   4                   5

    1     0.60709548793024    -0.30995880487153     0.55531784087355    -0.00000000000000     0.00000000000000
    2    -0.30995880487153    -0.36851935185640     0.12664300174207    -0.00000000000000     0.00000000000000
    3     0.55531784087355     0.12664300174207     0.73762825834056    -0.00000000000000     0.00000000000000
    4    -0.00000000000000    -0.00000000000000    -0.00000000000000     0.51747409179074     0.00000000000000
    5     0.00000000000000     0.00000000000000     0.00000000000000     0.00000000000000     0.51747409179074
    6    -1.59236770528266    -0.12061108775640    -1.17489986569412     0.00000000000000     0.00000000000000
    7    -0.12061108775640    -0.15604169365391    -0.08984755078744     0.00000000000000     0.00000000000000
    8     1.17489986569411     0.08984755078744     0.08600584667874    -0.00000000000000     0.00000000000000
    9     0.00000000000000     0.00000000000000     0.00000000000000    -0.43863445055515     0.00000000000000
   10     0.00000000000000     0.00000000000000     0.00000000000000     0.00000000000000    -0.43863445055515

                 6                   7                   8                   9                  10

    1    -1.59236770528266    -0.12061108775640     1.17489986569411     0.00000000000000     0.00000000000000
    2    -0.12061108775640    -0.15604169365391     0.08984755078744     0.00000000000000     0.00000000000000
    3    -1.17489986569412    -0.08984755078743     0.08600584667874     0.00000000000000     0.00000000000000
    4     0.00000000000000     0.00000000000000    -0.00000000000000    -0.43863445055515     0.00000000000000
    5     0.00000000000000     0.00000000000000     0.00000000000000     0.00000000000000    -0.43863445055515
    6     0.60709548793024    -0.30995880487153    -0.55531784087355    -0.00000000000000     0.00000000000000
    7    -0.30995880487153    -0.36851935185640    -0.12664300174207    -0.00000000000000     0.00000000000000
    8    -0.55531784087355    -0.12664300174207     0.73762825834056     0.00000000000000     0.00000000000000
    9    -0.00000000000000    -0.00000000000000     0.00000000000000     0.51747409179074     0.00000000000000
   10     0.00000000000000     0.00000000000000     0.00000000000000     0.00000000000000     0.51747409179074



  ## C (Symmetry 0) ##
  Irrep: 1 Size: 10 x 10

                 1                   2                   3                   4                   5

    1     2.51900925766156     0.53534751321092     0.60341799420381    -1.00613332087135    -2.23551487954569
    2    -1.45626101214726    -1.25278963255580     2.22150541974082    -0.00126760339334    -0.04164754548363
    3     1.03819951338253    -0.81912471042820     0.62759607381933    -0.63170569433869    -1.16404298163532
    4     0.29153088021403    -0.67231588663222    -0.44214883512406    -0.30144627770160     0.00000000000000
    5    -0.24955748938478     0.00297037186528    -0.16906239890377    -0.66358736580248     0.54050560208506
    6    -1.85808157301044     0.26169839953480    -0.35591040390550     1.52043189290442     2.64320590356982
    7     1.12521382541251     0.51477760055017    -2.48074366839690    -0.21012636401182    -0.12731763653247
    8     0.94708995826923     0.06973423617338     0.50390523473089    -0.49041751138766    -1.80105197424549
    9    -0.10268152402502     0.23679968247257     0.15573141412360     0.85585892408621     0.00000000000000
   10     0.70853754105380    -0.00843340739895     0.47999784217753     0.23372536725552    -0.19037413438128

                 6                   7                   8                   9                  10

    1     2.22245088362557     0.12361918510344    -1.03394173875290    -1.00613332087135    -0.23497703568165
    2     0.18947034439807     1.03206987325680     0.16765802386425    -0.00126760339335     0.03853503159505
    3     1.15465586998565    -0.65744193496263    -0.45853247248182    -0.63170569433869    -0.38706737152867
    4    -0.29153088021403     0.67231588663223    -0.44214883512406     0.30144627770160     0.00000000000000
    5     0.24955748938478    -0.00297037186528    -0.16906239890377    -0.66358736580248     0.54050560208506
    6    -1.85987058412773     0.25921461684384     0.35331323642453     1.52043189290442     1.09011116401437
    7     0.09338691838505    -0.91776453793339     0.98280591774666    -0.21012636401181    -0.38863335395629
    8     0.98282363277488     0.11934526506162    -0.45202946017325    -0.49041751138766     0.59686514151058
    9     0.10268152402503    -0.23679968247258     0.15573141412360    -0.85585892408621    -0.00000000000000
   10    -0.70853754105380     0.00843340739895     0.47999784217753     0.23372536725552    -0.19037413438128




 In Bisection function HOMO = -1.380  LUMO =  3.374

 0.99694 = (-1.37997 + 3.37385)/2.0
 sum -  nocc_ = 7.17176822
 On Iteration in Bisection 0
 a: 7.17177  b:-0.50000

 -0.19151 = (-1.37997 + 0.99694)/2.0
 sum -  nocc_ = 1.99873893
 On Iteration in Bisection 1
 a: 1.99874  b:-0.50000

 -0.78574 = (-1.37997 + -0.19151)/2.0
 sum -  nocc_ = 0.03588969
 On Iteration in Bisection 2
 a: 0.03589  b:-0.50000

 -1.08285 = (-1.37997 + -0.78574)/2.0
 sum -  nocc_ = -0.00874965
 On Iteration in Bisection 3
 a: -0.00875  b:-0.50000

 -0.93430 = (-1.08285 + -0.78574)/2.0
 sum -  nocc_ = 0.00267590
 On Iteration in Bisection 4
 a: 0.00268  b:-0.00875

 -1.00858 = (-1.08285 + -0.93430)/2.0
 sum -  nocc_ = -0.00172894
 On Iteration in Bisection 5
 a: -0.00173  b:-0.00875

 -0.97144 = (-1.00858 + -0.93430)/2.0
 sum -  nocc_ = 0.00040290
 On Iteration in Bisection 6
 a: 0.00040  b:-0.00173

 -0.99001 = (-1.00858 + -0.97144)/2.0
 sum -  nocc_ = -0.00063582
 On Iteration in Bisection 7
 a: -0.00064  b:-0.00173

 -0.98072 = (-0.99001 + -0.97144)/2.0
 sum -  nocc_ = -0.00011524
 On Iteration in Bisection 8
 a: -0.00012  b:-0.00064

 -0.97608 = (-0.98072 + -0.97144)/2.0
 sum -  nocc_ = 0.00014344
 On Iteration in Bisection 9
 a: 0.00014  b:-0.00012

 -0.97840 = (-0.98072 + -0.97608)/2.0
 sum -  nocc_ = 0.00001409
 On Iteration in Bisection 10
 a: 0.00001  b:-0.00012

 -0.97956 = (-0.98072 + -0.97840)/2.0
 sum -  nocc_ = -0.00005057
 On Iteration in Bisection 11
 a: -0.00005  b:-0.00012

 -0.97898 = (-0.97956 + -0.97840)/2.0
 sum -  nocc_ = -0.00001824
 On Iteration in Bisection 12
 a: -0.00002  b:-0.00005

 -0.97869 = (-0.97898 + -0.97840)/2.0
 sum -  nocc_ = -0.00000207
 On Iteration in Bisection 13
 a: -0.00000  b:-0.00002

 -0.97854 = (-0.97869 + -0.97840)/2.0
 sum -  nocc_ = 0.00000601
 On Iteration in Bisection 14
 a: 0.00001  b:-0.00000

 -0.97862 = (-0.97869 + -0.97854)/2.0
 sum -  nocc_ = 0.00000197
 On Iteration in Bisection 15
 a: 0.00000  b:-0.00000

 -0.97865 = (-0.97869 + -0.97862)/2.0
 sum -  nocc_ = -0.00000005
 On Iteration in Bisection 16
 a: -0.00000  b:-0.00000

 -0.97864 = (-0.97865 + -0.97862)/2.0
 sum -  nocc_ = 0.00000096
 On Iteration in Bisection 17
 a: 0.00000  b:-0.00000

 -0.97864 = (-0.97865 + -0.97864)/2.0
 sum -  nocc_ = 0.00000045
 On Iteration in Bisection 18
 a: 0.00000  b:-0.00000

 -0.97865 = (-0.97865 + -0.97864)/2.0
 sum -  nocc_ = 0.00000020
 On Iteration in Bisection 19
 a: 0.00000  b:-0.00000

 -0.97865 = (-0.97865 + -0.97865)/2.0
 sum -  nocc_ = 0.00000008
 On Iteration in Bisection 20
 a: 0.00000  b:-0.00000

 -0.97865 = (-0.97865 + -0.97865)/2.0
 sum -  nocc_ = 0.00000001
 On Iteration in Bisection 21
 a: 0.00000  b:-0.00000

 -0.97865 = (-0.97865 + -0.97865)/2.0
 sum -  nocc_ = -0.00000002
 On Iteration in Bisection 22
 a: -0.00000  b:-0.00000

 -0.97865 = (-0.97865 + -0.97865)/2.0
 sum -  nocc_ = -0.00000000
 ef = -0.97865 sum = 1.00000 

 Iter: 0  T:    20000.000  val:-0.978653  sumni 0.00000
 ne = 1.0000

Nuc Replusion =       0.881962014317
 1st iteration =       1.356036064145
 In Bisection function HOMO = -0.201  LUMO =  4.609

 2.20423 = (-0.20062 + 4.60908)/2.0
 sum -  nocc_ = 7.66655406
 On Iteration in Bisection 0
 a: 7.66655  b:-0.49843

 1.00181 = (-0.20062 + 2.20423)/2.0
 sum -  nocc_ = 2.43850427
 On Iteration in Bisection 1
 a: 2.43850  b:-0.49843

 0.40059 = (-0.20062 + 1.00181)/2.0
 sum -  nocc_ = 1.42008770
 On Iteration in Bisection 2
 a: 1.42009  b:-0.49843

 0.09999 = (-0.20062 + 0.40059)/2.0
 sum -  nocc_ = 0.14712138
 On Iteration in Bisection 3
 a: 0.14712  b:-0.49843

 -0.05032 = (-0.20062 + 0.09999)/2.0
 sum -  nocc_ = -0.06857810
 On Iteration in Bisection 4
 a: -0.06858  b:-0.49843

 0.02483 = (-0.05032 + 0.09999)/2.0
 sum -  nocc_ = 0.02508185
 On Iteration in Bisection 5
 a: 0.02508  b:-0.06858

 -0.01274 = (-0.05032 + 0.02483)/2.0
 sum -  nocc_ = -0.01917834
 On Iteration in Bisection 6
 a: -0.01918  b:-0.06858

 0.00605 = (-0.01274 + 0.02483)/2.0
 sum -  nocc_ = 0.00283728
 On Iteration in Bisection 7
 a: 0.00284  b:-0.01918

 -0.00335 = (-0.01274 + 0.00605)/2.0
 sum -  nocc_ = -0.00810429
 On Iteration in Bisection 8
 a: -0.00810  b:-0.01918

 0.00135 = (-0.00335 + 0.00605)/2.0
 sum -  nocc_ = -0.00262877
 On Iteration in Bisection 9
 a: -0.00263  b:-0.00810

 0.00370 = (0.00135 + 0.00605)/2.0
 sum -  nocc_ = 0.00010395
 On Iteration in Bisection 10
 a: 0.00010  b:-0.00263

 0.00252 = (0.00135 + 0.00370)/2.0
 sum -  nocc_ = -0.00126230
 On Iteration in Bisection 11
 a: -0.00126  b:-0.00263

 0.00311 = (0.00252 + 0.00370)/2.0
 sum -  nocc_ = -0.00057917
 On Iteration in Bisection 12
 a: -0.00058  b:-0.00126

 0.00340 = (0.00311 + 0.00370)/2.0
 sum -  nocc_ = -0.00023761
 On Iteration in Bisection 13
 a: -0.00024  b:-0.00058

 0.00355 = (0.00340 + 0.00370)/2.0
 sum -  nocc_ = -0.00006683
 On Iteration in Bisection 14
 a: -0.00007  b:-0.00024

 0.00362 = (0.00355 + 0.00370)/2.0
 sum -  nocc_ = 0.00001856
 On Iteration in Bisection 15
 a: 0.00002  b:-0.00007

 0.00359 = (0.00355 + 0.00362)/2.0
 sum -  nocc_ = -0.00002413
 On Iteration in Bisection 16
 a: -0.00002  b:-0.00007

 0.00361 = (0.00359 + 0.00362)/2.0
 sum -  nocc_ = -0.00000278
 On Iteration in Bisection 17
 a: -0.00000  b:-0.00002

 0.00362 = (0.00361 + 0.00362)/2.0
 sum -  nocc_ = 0.00000789
 On Iteration in Bisection 18
 a: 0.00001  b:-0.00000

 0.00361 = (0.00361 + 0.00362)/2.0
 sum -  nocc_ = 0.00000255
 On Iteration in Bisection 19
 a: 0.00000  b:-0.00000

 0.00361 = (0.00361 + 0.00361)/2.0
 sum -  nocc_ = -0.00000012
 On Iteration in Bisection 20
 a: -0.00000  b:-0.00000

 0.00361 = (0.00361 + 0.00361)/2.0
 sum -  nocc_ = 0.00000122
 On Iteration in Bisection 21
 a: 0.00000  b:-0.00000

 0.00361 = (0.00361 + 0.00361)/2.0
 sum -  nocc_ = 0.00000055
 On Iteration in Bisection 22
 a: 0.00000  b:-0.00000

 0.00361 = (0.00361 + 0.00361)/2.0
 sum -  nocc_ = 0.00000022
 On Iteration in Bisection 23
 a: 0.00000  b:-0.00000

 0.00361 = (0.00361 + 0.00361)/2.0
 sum -  nocc_ = 0.00000005
 On Iteration in Bisection 24
 a: 0.00000  b:-0.00000

 0.00361 = (0.00361 + 0.00361)/2.0
 sum -  nocc_ = -0.00000003
 On Iteration in Bisection 25
 a: -0.00000  b:-0.00000

 0.00361 = (0.00361 + 0.00361)/2.0
 sum -  nocc_ = 0.00000001
 ef = 0.00361 sum = 1.00000 

 Iter: 0  T:    20000.000  val:0.003608  sumni 0.00000
 ne = 1.0000

 iter:1  failiter:1  energy:     -1.463385211907  total:     -0.581423197590  error:     -0.356492735839
 In Bisection function HOMO = -0.653  LUMO =  4.736

 2.04161 = (-0.65261 + 4.73583)/2.0
 sum -  nocc_ = 6.12990559
 On Iteration in Bisection 0
 a: 6.12991  b:-0.50000

 0.69450 = (-0.65261 + 2.04161)/2.0
 sum -  nocc_ = 1.99171682
 On Iteration in Bisection 1
 a: 1.99172  b:-0.50000

 0.02094 = (-0.65261 + 0.69450)/2.0
 sum -  nocc_ = 0.05934114
 On Iteration in Bisection 2
 a: 0.05934  b:-0.50000

 -0.31584 = (-0.65261 + 0.02094)/2.0
 sum -  nocc_ = -0.00457214
 On Iteration in Bisection 3
 a: -0.00457  b:-0.50000

 -0.14745 = (-0.31584 + 0.02094)/2.0
 sum -  nocc_ = 0.00404330
 On Iteration in Bisection 4
 a: 0.00404  b:-0.00457

 -0.23164 = (-0.31584 + -0.14745)/2.0
 sum -  nocc_ = -0.00013179
 On Iteration in Bisection 5
 a: -0.00013  b:-0.00457

 -0.18954 = (-0.23164 + -0.14745)/2.0
 sum -  nocc_ = 0.00159395
 On Iteration in Bisection 6
 a: 0.00159  b:-0.00013

 -0.21059 = (-0.23164 + -0.18954)/2.0
 sum -  nocc_ = 0.00069275
 On Iteration in Bisection 7
 a: 0.00069  b:-0.00013

 -0.22112 = (-0.23164 + -0.21059)/2.0
 sum -  nocc_ = 0.00027667
 On Iteration in Bisection 8
 a: 0.00028  b:-0.00013

 -0.22638 = (-0.23164 + -0.22112)/2.0
 sum -  nocc_ = 0.00007219
 On Iteration in Bisection 9
 a: 0.00007  b:-0.00013

 -0.22901 = (-0.23164 + -0.22638)/2.0
 sum -  nocc_ = -0.00002977
 On Iteration in Bisection 10
 a: -0.00003  b:-0.00013

 -0.22770 = (-0.22901 + -0.22638)/2.0
 sum -  nocc_ = 0.00002121
 On Iteration in Bisection 11
 a: 0.00002  b:-0.00003

 -0.22835 = (-0.22901 + -0.22770)/2.0
 sum -  nocc_ = -0.00000428
 On Iteration in Bisection 12
 a: -0.00000  b:-0.00003

 -0.22802 = (-0.22835 + -0.22770)/2.0
 sum -  nocc_ = 0.00000846
 On Iteration in Bisection 13
 a: 0.00001  b:-0.00000

 -0.22819 = (-0.22835 + -0.22802)/2.0
 sum -  nocc_ = 0.00000209
 On Iteration in Bisection 14
 a: 0.00000  b:-0.00000

 -0.22827 = (-0.22835 + -0.22819)/2.0
 sum -  nocc_ = -0.00000110
 On Iteration in Bisection 15
 a: -0.00000  b:-0.00000

 -0.22823 = (-0.22827 + -0.22819)/2.0
 sum -  nocc_ = 0.00000050
 On Iteration in Bisection 16
 a: 0.00000  b:-0.00000

 -0.22825 = (-0.22827 + -0.22823)/2.0
 sum -  nocc_ = -0.00000030
 On Iteration in Bisection 17
 a: -0.00000  b:-0.00000

 -0.22824 = (-0.22825 + -0.22823)/2.0
 sum -  nocc_ = 0.00000010
 On Iteration in Bisection 18
 a: 0.00000  b:-0.00000

 -0.22825 = (-0.22825 + -0.22824)/2.0
 sum -  nocc_ = -0.00000010
 On Iteration in Bisection 19
 a: -0.00000  b:-0.00000

 -0.22824 = (-0.22825 + -0.22824)/2.0
 sum -  nocc_ = -0.00000000
 ef = -0.22824 sum = 1.00000 

 Iter: 1  T:    20000.000  val:-0.228243  sumni 0.00000
 ne = 1.0000

 iter:2  failiter:2  energy:     -1.998341262323  total:     -1.116379248007  error:     -0.534956050416
 In Bisection function HOMO = -0.640  LUMO =  4.798

 2.07901 = (-0.64002 + 4.79803)/2.0
 sum -  nocc_ = 6.09723577
 On Iteration in Bisection 0
 a: 6.09724  b:-0.50000

 0.71949 = (-0.64002 + 2.07901)/2.0
 sum -  nocc_ = 1.99192559
 On Iteration in Bisection 1
 a: 1.99193  b:-0.50000

 0.03974 = (-0.64002 + 0.71949)/2.0
 sum -  nocc_ = 0.05558347
 On Iteration in Bisection 2
 a: 0.05558  b:-0.50000

 -0.30014 = (-0.64002 + 0.03974)/2.0
 sum -  nocc_ = -0.00437443
 On Iteration in Bisection 3
 a: -0.00437  b:-0.50000

 -0.13020 = (-0.30014 + 0.03974)/2.0
 sum -  nocc_ = 0.00367607
 On Iteration in Bisection 4
 a: 0.00368  b:-0.00437

 -0.21517 = (-0.30014 + -0.13020)/2.0
 sum -  nocc_ = -0.00017205
 On Iteration in Bisection 5
 a: -0.00017  b:-0.00437

 -0.17269 = (-0.21517 + -0.13020)/2.0
 sum -  nocc_ = 0.00142262
 On Iteration in Bisection 6
 a: 0.00142  b:-0.00017

 -0.19393 = (-0.21517 + -0.17269)/2.0
 sum -  nocc_ = 0.00059190
 On Iteration in Bisection 7
 a: 0.00059  b:-0.00017

 -0.20455 = (-0.21517 + -0.19393)/2.0
 sum -  nocc_ = 0.00020702
 On Iteration in Bisection 8
 a: 0.00021  b:-0.00017

 -0.20986 = (-0.21517 + -0.20455)/2.0
 sum -  nocc_ = 0.00001743
 On Iteration in Bisection 9
 a: 0.00002  b:-0.00017

 -0.21252 = (-0.21517 + -0.20986)/2.0
 sum -  nocc_ = -0.00007724
 On Iteration in Bisection 10
 a: -0.00008  b:-0.00017

 -0.21119 = (-0.21252 + -0.20986)/2.0
 sum -  nocc_ = -0.00002990
 On Iteration in Bisection 11
 a: -0.00003  b:-0.00008

 -0.21053 = (-0.21119 + -0.20986)/2.0
 sum -  nocc_ = -0.00000624
 On Iteration in Bisection 12
 a: -0.00001  b:-0.00003

 -0.21019 = (-0.21053 + -0.20986)/2.0
 sum -  nocc_ = 0.00000559
 On Iteration in Bisection 13
 a: 0.00001  b:-0.00001

 -0.21036 = (-0.21053 + -0.21019)/2.0
 sum -  nocc_ = -0.00000032
 On Iteration in Bisection 14
 a: -0.00000  b:-0.00001

 -0.21028 = (-0.21036 + -0.21019)/2.0
 sum -  nocc_ = 0.00000264
 On Iteration in Bisection 15
 a: 0.00000  b:-0.00000

 -0.21032 = (-0.21036 + -0.21028)/2.0
 sum -  nocc_ = 0.00000116
 On Iteration in Bisection 16
 a: 0.00000  b:-0.00000

 -0.21034 = (-0.21036 + -0.21032)/2.0
 sum -  nocc_ = 0.00000042
 On Iteration in Bisection 17
 a: 0.00000  b:-0.00000

 -0.21035 = (-0.21036 + -0.21034)/2.0
 sum -  nocc_ = 0.00000005
 On Iteration in Bisection 18
 a: 0.00000  b:-0.00000

 -0.21036 = (-0.21036 + -0.21035)/2.0
 sum -  nocc_ = -0.00000014
 On Iteration in Bisection 19
 a: -0.00000  b:-0.00000

 -0.21035 = (-0.21036 + -0.21035)/2.0
 sum -  nocc_ = -0.00000005
 On Iteration in Bisection 20
 a: -0.00000  b:-0.00000

 -0.21035 = (-0.21035 + -0.21035)/2.0
 sum -  nocc_ = 0.00000000
 ef = -0.21035 sum = 1.00000 

 Iter: 2  T:    20000.000  val:-0.210351  sumni 0.00000
 ne = 1.0000

 iter:3  failiter:3  energy:     -1.987858041915  total:     -1.105896027599  error:      0.010483220408
 In Bisection function HOMO = -0.639  LUMO =  4.801

 2.08105 = (-0.63899 + 4.80108)/2.0
 sum -  nocc_ = 6.09815286
 On Iteration in Bisection 0
 a: 6.09815  b:-0.50000

 0.72103 = (-0.63899 + 2.08105)/2.0
 sum -  nocc_ = 1.99210086
 On Iteration in Bisection 1
 a: 1.99210  b:-0.50000

 0.04102 = (-0.63899 + 0.72103)/2.0
 sum -  nocc_ = 0.05592979
 On Iteration in Bisection 2
 a: 0.05593  b:-0.50000

 -0.29898 = (-0.63899 + 0.04102)/2.0
 sum -  nocc_ = -0.00436401
 On Iteration in Bisection 3
 a: -0.00436  b:-0.50000

 -0.12898 = (-0.29898 + 0.04102)/2.0
 sum -  nocc_ = 0.00369917
 On Iteration in Bisection 4
 a: 0.00370  b:-0.00436

 -0.21398 = (-0.29898 + -0.12898)/2.0
 sum -  nocc_ = -0.00016373
 On Iteration in Bisection 5
 a: -0.00016  b:-0.00436

 -0.17148 = (-0.21398 + -0.12898)/2.0
 sum -  nocc_ = 0.00143517
 On Iteration in Bisection 6
 a: 0.00144  b:-0.00016

 -0.19273 = (-0.21398 + -0.17148)/2.0
 sum -  nocc_ = 0.00060175
 On Iteration in Bisection 7
 a: 0.00060  b:-0.00016

 -0.20336 = (-0.21398 + -0.19273)/2.0
 sum -  nocc_ = 0.00021598
 On Iteration in Bisection 8
 a: 0.00022  b:-0.00016

 -0.20867 = (-0.21398 + -0.20336)/2.0
 sum -  nocc_ = 0.00002603
 On Iteration in Bisection 9
 a: 0.00003  b:-0.00016

 -0.21133 = (-0.21398 + -0.20867)/2.0
 sum -  nocc_ = -0.00006879
 On Iteration in Bisection 10
 a: -0.00007  b:-0.00016

 -0.21000 = (-0.21133 + -0.20867)/2.0
 sum -  nocc_ = -0.00002137
 On Iteration in Bisection 11
 a: -0.00002  b:-0.00007

 -0.20933 = (-0.21000 + -0.20867)/2.0
 sum -  nocc_ = 0.00000233
 On Iteration in Bisection 12
 a: 0.00000  b:-0.00002

 -0.20967 = (-0.21000 + -0.20933)/2.0
 sum -  nocc_ = -0.00000952
 On Iteration in Bisection 13
 a: -0.00001  b:-0.00002

 -0.20950 = (-0.20967 + -0.20933)/2.0
 sum -  nocc_ = -0.00000360
 On Iteration in Bisection 14
 a: -0.00000  b:-0.00001

 -0.20942 = (-0.20950 + -0.20933)/2.0
 sum -  nocc_ = -0.00000063
 On Iteration in Bisection 15
 a: -0.00000  b:-0.00000

 -0.20937 = (-0.20942 + -0.20933)/2.0
 sum -  nocc_ = 0.00000085
 On Iteration in Bisection 16
 a: 0.00000  b:-0.00000

 -0.20940 = (-0.20942 + -0.20937)/2.0
 sum -  nocc_ = 0.00000011
 On Iteration in Bisection 17
 a: 0.00000  b:-0.00000

 -0.20941 = (-0.20942 + -0.20940)/2.0
 sum -  nocc_ = -0.00000026
 On Iteration in Bisection 18
 a: -0.00000  b:-0.00000

 -0.20940 = (-0.20941 + -0.20940)/2.0
 sum -  nocc_ = -0.00000008
 On Iteration in Bisection 19
 a: -0.00000  b:-0.00000

 -0.20940 = (-0.20940 + -0.20940)/2.0
 sum -  nocc_ = 0.00000001
 On Iteration in Bisection 20
 a: 0.00000  b:-0.00000

 -0.20940 = (-0.20940 + -0.20940)/2.0
 sum -  nocc_ = -0.00000003
 On Iteration in Bisection 21
 a: -0.00000  b:-0.00000

 -0.20940 = (-0.20940 + -0.20940)/2.0
 sum -  nocc_ = -0.00000001
 ef = -0.20940 sum = 1.00000 

 Iter: 3  T:    20000.000  val:-0.209399  sumni 0.00000
 ne = 1.0000

 iter:4  failiter:4  energy:     -1.987072543517  total:     -1.105110529200  error:      0.000785498398
 In Bisection function HOMO = -0.639  LUMO =  4.802

 2.08138 = (-0.63880 + 4.80157)/2.0
 sum -  nocc_ = 6.09843699
 On Iteration in Bisection 0
 a: 6.09844  b:-0.50000

 0.72129 = (-0.63880 + 2.08138)/2.0
 sum -  nocc_ = 1.99213607
 On Iteration in Bisection 1
 a: 1.99214  b:-0.50000

 0.04125 = (-0.63880 + 0.72129)/2.0
 sum -  nocc_ = 0.05600985
 On Iteration in Bisection 2
 a: 0.05601  b:-0.50000

 -0.29878 = (-0.63880 + 0.04125)/2.0
 sum -  nocc_ = -0.00436229
 On Iteration in Bisection 3
 a: -0.00436  b:-0.50000

 -0.12877 = (-0.29878 + 0.04125)/2.0
 sum -  nocc_ = 0.00370475
 On Iteration in Bisection 4
 a: 0.00370  b:-0.00436

 -0.21377 = (-0.29878 + -0.12877)/2.0
 sum -  nocc_ = -0.00016193
 On Iteration in Bisection 5
 a: -0.00016  b:-0.00436

 -0.17127 = (-0.21377 + -0.12877)/2.0
 sum -  nocc_ = 0.00143814
 On Iteration in Bisection 6
 a: 0.00144  b:-0.00016

 -0.19252 = (-0.21377 + -0.17127)/2.0
 sum -  nocc_ = 0.00060401
 On Iteration in Bisection 7
 a: 0.00060  b:-0.00016

 -0.20315 = (-0.21377 + -0.19252)/2.0
 sum -  nocc_ = 0.00021798
 On Iteration in Bisection 8
 a: 0.00022  b:-0.00016

 -0.20846 = (-0.21377 + -0.20315)/2.0
 sum -  nocc_ = 0.00002793
 On Iteration in Bisection 9
 a: 0.00003  b:-0.00016

 -0.21111 = (-0.21377 + -0.20846)/2.0
 sum -  nocc_ = -0.00006694
 On Iteration in Bisection 10
 a: -0.00007  b:-0.00016

 -0.20979 = (-0.21111 + -0.20846)/2.0
 sum -  nocc_ = -0.00001950
 On Iteration in Bisection 11
 a: -0.00002  b:-0.00007

 -0.20912 = (-0.20979 + -0.20846)/2.0
 sum -  nocc_ = 0.00000421
 On Iteration in Bisection 12
 a: 0.00000  b:-0.00002

 -0.20945 = (-0.20979 + -0.20912)/2.0
 sum -  nocc_ = -0.00000764
 On Iteration in Bisection 13
 a: -0.00001  b:-0.00002

 -0.20929 = (-0.20945 + -0.20912)/2.0
 sum -  nocc_ = -0.00000172
 On Iteration in Bisection 14
 a: -0.00000  b:-0.00001

 -0.20921 = (-0.20929 + -0.20912)/2.0
 sum -  nocc_ = 0.00000125
 On Iteration in Bisection 15
 a: 0.00000  b:-0.00000

 -0.20925 = (-0.20929 + -0.20921)/2.0
 sum -  nocc_ = -0.00000023
 On Iteration in Bisection 16
 a: -0.00000  b:-0.00000

 -0.20923 = (-0.20925 + -0.20921)/2.0
 sum -  nocc_ = 0.00000051
 On Iteration in Bisection 17
 a: 0.00000  b:-0.00000

 -0.20924 = (-0.20925 + -0.20923)/2.0
 sum -  nocc_ = 0.00000014
 On Iteration in Bisection 18
 a: 0.00000  b:-0.00000

 -0.20924 = (-0.20925 + -0.20924)/2.0
 sum -  nocc_ = -0.00000005
 On Iteration in Bisection 19
 a: -0.00000  b:-0.00000

 -0.20924 = (-0.20924 + -0.20924)/2.0
 sum -  nocc_ = 0.00000004
 On Iteration in Bisection 20
 a: 0.00000  b:-0.00000

 -0.20924 = (-0.20924 + -0.20924)/2.0
 sum -  nocc_ = -0.00000000
 ef = -0.20924 sum = 1.00000 

 Iter: 4  T:    20000.000  val:-0.209240  sumni 0.00000
 ne = 1.0000

 iter:5  failiter:5  energy:     -1.986927119707  total:     -1.104965105390  error:      0.000145423810
 In Bisection function HOMO = -0.639  LUMO =  4.802

 2.08145 = (-0.63876 + 4.80166)/2.0
 sum -  nocc_ = 6.09850624
 On Iteration in Bisection 0
 a: 6.09851  b:-0.50000

 0.72134 = (-0.63876 + 2.08145)/2.0
 sum -  nocc_ = 1.99214333
 On Iteration in Bisection 1
 a: 1.99214  b:-0.50000

 0.04129 = (-0.63876 + 0.72134)/2.0
 sum -  nocc_ = 0.05602750
 On Iteration in Bisection 2
 a: 0.05603  b:-0.50000

 -0.29874 = (-0.63876 + 0.04129)/2.0
 sum -  nocc_ = -0.00436196
 On Iteration in Bisection 3
 a: -0.00436  b:-0.50000

 -0.12872 = (-0.29874 + 0.04129)/2.0
 sum -  nocc_ = 0.00370599
 On Iteration in Bisection 4
 a: 0.00371  b:-0.00436

 -0.21373 = (-0.29874 + -0.12872)/2.0
 sum -  nocc_ = -0.00016154
 On Iteration in Bisection 5
 a: -0.00016  b:-0.00436

 -0.17123 = (-0.21373 + -0.12872)/2.0
 sum -  nocc_ = 0.00143880
 On Iteration in Bisection 6
 a: 0.00144  b:-0.00016

 -0.19248 = (-0.21373 + -0.17123)/2.0
 sum -  nocc_ = 0.00060450
 On Iteration in Bisection 7
 a: 0.00060  b:-0.00016

 -0.20310 = (-0.21373 + -0.19248)/2.0
 sum -  nocc_ = 0.00021842
 On Iteration in Bisection 8
 a: 0.00022  b:-0.00016

 -0.20842 = (-0.21373 + -0.20310)/2.0
 sum -  nocc_ = 0.00002834
 On Iteration in Bisection 9
 a: 0.00003  b:-0.00016

 -0.21107 = (-0.21373 + -0.20842)/2.0
 sum -  nocc_ = -0.00006654
 On Iteration in Bisection 10
 a: -0.00007  b:-0.00016

 -0.20974 = (-0.21107 + -0.20842)/2.0
 sum -  nocc_ = -0.00001910
 On Iteration in Bisection 11
 a: -0.00002  b:-0.00007

 -0.20908 = (-0.20974 + -0.20842)/2.0
 sum -  nocc_ = 0.00000462
 On Iteration in Bisection 12
 a: 0.00000  b:-0.00002

 -0.20941 = (-0.20974 + -0.20908)/2.0
 sum -  nocc_ = -0.00000724
 On Iteration in Bisection 13
 a: -0.00001  b:-0.00002

 -0.20925 = (-0.20941 + -0.20908)/2.0
 sum -  nocc_ = -0.00000131
 On Iteration in Bisection 14
 a: -0.00000  b:-0.00001

 -0.20916 = (-0.20925 + -0.20908)/2.0
 sum -  nocc_ = 0.00000166
 On Iteration in Bisection 15
 a: 0.00000  b:-0.00000

 -0.20920 = (-0.20925 + -0.20916)/2.0
 sum -  nocc_ = 0.00000017
 On Iteration in Bisection 16
 a: 0.00000  b:-0.00000

 -0.20923 = (-0.20925 + -0.20920)/2.0
 sum -  nocc_ = -0.00000057
 On Iteration in Bisection 17
 a: -0.00000  b:-0.00000

 -0.20922 = (-0.20923 + -0.20920)/2.0
 sum -  nocc_ = -0.00000020
 On Iteration in Bisection 18
 a: -0.00000  b:-0.00000

 -0.20921 = (-0.20922 + -0.20920)/2.0
 sum -  nocc_ = -0.00000001
 On Iteration in Bisection 19
 a: -0.00000  b:-0.00000

 -0.20921 = (-0.20921 + -0.20920)/2.0
 sum -  nocc_ = 0.00000008
 On Iteration in Bisection 20
 a: 0.00000  b:-0.00000

 -0.20921 = (-0.20921 + -0.20921)/2.0
 sum -  nocc_ = 0.00000004
 On Iteration in Bisection 21
 a: 0.00000  b:-0.00000

 -0.20921 = (-0.20921 + -0.20921)/2.0
 sum -  nocc_ = 0.00000001
 On Iteration in Bisection 22
 a: 0.00000  b:-0.00000

 -0.20921 = (-0.20921 + -0.20921)/2.0
 sum -  nocc_ = 0.00000000
 ef = -0.20921 sum = 1.00000 

 Iter: 5  T:    20000.000  val:-0.209210  sumni 0.00000
 ne = 1.0000

 iter:6  failiter:6  energy:     -1.986897763703  total:     -1.104935749387  error:      0.000029356003
 In Bisection function HOMO = -0.639  LUMO =  4.802

 2.08146 = (-0.63875 + 4.80168)/2.0
 sum -  nocc_ = 6.09852242
 On Iteration in Bisection 0
 a: 6.09852  b:-0.50000

 0.72135 = (-0.63875 + 2.08146)/2.0
 sum -  nocc_ = 1.99214486
 On Iteration in Bisection 1
 a: 1.99214  b:-0.50000

 0.04130 = (-0.63875 + 0.72135)/2.0
 sum -  nocc_ = 0.05603138
 On Iteration in Bisection 2
 a: 0.05603  b:-0.50000

 -0.29873 = (-0.63875 + 0.04130)/2.0
 sum -  nocc_ = -0.00436189
 On Iteration in Bisection 3
 a: -0.00436  b:-0.50000

 -0.12871 = (-0.29873 + 0.04130)/2.0
 sum -  nocc_ = 0.00370627
 On Iteration in Bisection 4
 a: 0.00371  b:-0.00436

 -0.21372 = (-0.29873 + -0.12871)/2.0
 sum -  nocc_ = -0.00016145
 On Iteration in Bisection 5
 a: -0.00016  b:-0.00436

 -0.17122 = (-0.21372 + -0.12871)/2.0
 sum -  nocc_ = 0.00143894
 On Iteration in Bisection 6
 a: 0.00144  b:-0.00016

 -0.19247 = (-0.21372 + -0.17122)/2.0
 sum -  nocc_ = 0.00060461
 On Iteration in Bisection 7
 a: 0.00060  b:-0.00016

 -0.20309 = (-0.21372 + -0.19247)/2.0
 sum -  nocc_ = 0.00021851
 On Iteration in Bisection 8
 a: 0.00022  b:-0.00016

 -0.20841 = (-0.21372 + -0.20309)/2.0
 sum -  nocc_ = 0.00002843
 On Iteration in Bisection 9
 a: 0.00003  b:-0.00016

 -0.21106 = (-0.21372 + -0.20841)/2.0
 sum -  nocc_ = -0.00006645
 On Iteration in Bisection 10
 a: -0.00007  b:-0.00016

 -0.20974 = (-0.21106 + -0.20841)/2.0
 sum -  nocc_ = -0.00001901
 On Iteration in Bisection 11
 a: -0.00002  b:-0.00007

 -0.20907 = (-0.20974 + -0.20841)/2.0
 sum -  nocc_ = 0.00000471
 On Iteration in Bisection 12
 a: 0.00000  b:-0.00002

 -0.20940 = (-0.20974 + -0.20907)/2.0
 sum -  nocc_ = -0.00000715
 On Iteration in Bisection 13
 a: -0.00001  b:-0.00002

 -0.20924 = (-0.20940 + -0.20907)/2.0
 sum -  nocc_ = -0.00000122
 On Iteration in Bisection 14
 a: -0.00000  b:-0.00001

 -0.20915 = (-0.20924 + -0.20907)/2.0
 sum -  nocc_ = 0.00000175
 On Iteration in Bisection 15
 a: 0.00000  b:-0.00000

 -0.20920 = (-0.20924 + -0.20915)/2.0
 sum -  nocc_ = 0.00000026
 On Iteration in Bisection 16
 a: 0.00000  b:-0.00000

 -0.20922 = (-0.20924 + -0.20920)/2.0
 sum -  nocc_ = -0.00000048
 On Iteration in Bisection 17
 a: -0.00000  b:-0.00000

 -0.20921 = (-0.20922 + -0.20920)/2.0
 sum -  nocc_ = -0.00000011
 On Iteration in Bisection 18
 a: -0.00000  b:-0.00000

 -0.20920 = (-0.20921 + -0.20920)/2.0
 sum -  nocc_ = 0.00000008
 On Iteration in Bisection 19
 a: 0.00000  b:-0.00000

 -0.20920 = (-0.20921 + -0.20920)/2.0
 sum -  nocc_ = -0.00000001
 On Iteration in Bisection 20
 a: -0.00000  b:-0.00000

 -0.20920 = (-0.20920 + -0.20920)/2.0
 sum -  nocc_ = 0.00000003
 On Iteration in Bisection 21
 a: 0.00000  b:-0.00000

 -0.20920 = (-0.20920 + -0.20920)/2.0
 sum -  nocc_ = 0.00000001
 ef = -0.20920 sum = 1.00000 

 Iter: 6  T:    20000.000  val:-0.209203  sumni 0.00000
 ne = 1.0000

 iter:7  failiter:7  energy:     -1.986891601149  total:     -1.104929586833  error:      0.000006162554
 In Bisection function HOMO = -0.639  LUMO =  4.802

 2.08147 = (-0.63875 + 4.80169)/2.0
 sum -  nocc_ = 6.09852605
 On Iteration in Bisection 0
 a: 6.09853  b:-0.50000

 0.72136 = (-0.63875 + 2.08147)/2.0
 sum -  nocc_ = 1.99214518
 On Iteration in Bisection 1
 a: 1.99215  b:-0.50000

 0.04130 = (-0.63875 + 0.72136)/2.0
 sum -  nocc_ = 0.05603222
 On Iteration in Bisection 2
 a: 0.05603  b:-0.50000

 -0.29873 = (-0.63875 + 0.04130)/2.0
 sum -  nocc_ = -0.00436188
 On Iteration in Bisection 3
 a: -0.00436  b:-0.50000

 -0.12871 = (-0.29873 + 0.04130)/2.0
 sum -  nocc_ = 0.00370633
 On Iteration in Bisection 4
 a: 0.00371  b:-0.00436

 -0.21372 = (-0.29873 + -0.12871)/2.0
 sum -  nocc_ = -0.00016144
 On Iteration in Bisection 5
 a: -0.00016  b:-0.00436

 -0.17122 = (-0.21372 + -0.12871)/2.0
 sum -  nocc_ = 0.00143897
 On Iteration in Bisection 6
 a: 0.00144  b:-0.00016

 -0.19247 = (-0.21372 + -0.17122)/2.0
 sum -  nocc_ = 0.00060464
 On Iteration in Bisection 7
 a: 0.00060  b:-0.00016

 -0.20309 = (-0.21372 + -0.19247)/2.0
 sum -  nocc_ = 0.00021854
 On Iteration in Bisection 8
 a: 0.00022  b:-0.00016

 -0.20841 = (-0.21372 + -0.20309)/2.0
 sum -  nocc_ = 0.00002845
 On Iteration in Bisection 9
 a: 0.00003  b:-0.00016

 -0.21106 = (-0.21372 + -0.20841)/2.0
 sum -  nocc_ = -0.00006644
 On Iteration in Bisection 10
 a: -0.00007  b:-0.00016

 -0.20973 = (-0.21106 + -0.20841)/2.0
 sum -  nocc_ = -0.00001899
 On Iteration in Bisection 11
 a: -0.00002  b:-0.00007

 -0.20907 = (-0.20973 + -0.20841)/2.0
 sum -  nocc_ = 0.00000473
 On Iteration in Bisection 12
 a: 0.00000  b:-0.00002

 -0.20940 = (-0.20973 + -0.20907)/2.0
 sum -  nocc_ = -0.00000713
 On Iteration in Bisection 13
 a: -0.00001  b:-0.00002

 -0.20924 = (-0.20940 + -0.20907)/2.0
 sum -  nocc_ = -0.00000120
 On Iteration in Bisection 14
 a: -0.00000  b:-0.00001

 -0.20915 = (-0.20924 + -0.20907)/2.0
 sum -  nocc_ = 0.00000177
 On Iteration in Bisection 15
 a: 0.00000  b:-0.00000

 -0.20919 = (-0.20924 + -0.20915)/2.0
 sum -  nocc_ = 0.00000028
 On Iteration in Bisection 16
 a: 0.00000  b:-0.00000

 -0.20922 = (-0.20924 + -0.20919)/2.0
 sum -  nocc_ = -0.00000046
 On Iteration in Bisection 17
 a: -0.00000  b:-0.00000

 -0.20920 = (-0.20922 + -0.20919)/2.0
 sum -  nocc_ = -0.00000009
 On Iteration in Bisection 18
 a: -0.00000  b:-0.00000

 -0.20920 = (-0.20920 + -0.20919)/2.0
 sum -  nocc_ = 0.00000010
 On Iteration in Bisection 19
 a: 0.00000  b:-0.00000

 -0.20920 = (-0.20920 + -0.20920)/2.0
 sum -  nocc_ = 0.00000000
 ef = -0.20920 sum = 1.00000 

 Iter: 7  T:    20000.000  val:-0.209202  sumni 0.00000
 ne = 1.0000

 iter:8  failiter:8  energy:     -1.986890285873  total:     -1.104928271556  error:      0.000001315277
 In Bisection function HOMO = -0.639  LUMO =  4.802

 2.08147 = (-0.63875 + 4.80169)/2.0
 sum -  nocc_ = 6.09852684
 On Iteration in Bisection 0
 a: 6.09853  b:-0.50000

 0.72136 = (-0.63875 + 2.08147)/2.0
 sum -  nocc_ = 1.99214525
 On Iteration in Bisection 1
 a: 1.99215  b:-0.50000

 0.04130 = (-0.63875 + 0.72136)/2.0
 sum -  nocc_ = 0.05603239
 On Iteration in Bisection 2
 a: 0.05603  b:-0.50000

 -0.29873 = (-0.63875 + 0.04130)/2.0
 sum -  nocc_ = -0.00436188
 On Iteration in Bisection 3
 a: -0.00436  b:-0.50000

 -0.12871 = (-0.29873 + 0.04130)/2.0
 sum -  nocc_ = 0.00370634
 On Iteration in Bisection 4
 a: 0.00371  b:-0.00436

 -0.21372 = (-0.29873 + -0.12871)/2.0
 sum -  nocc_ = -0.00016143
 On Iteration in Bisection 5
 a: -0.00016  b:-0.00436

 -0.17121 = (-0.21372 + -0.12871)/2.0
 sum -  nocc_ = 0.00143898
 On Iteration in Bisection 6
 a: 0.00144  b:-0.00016

 -0.19247 = (-0.21372 + -0.17121)/2.0
 sum -  nocc_ = 0.00060464
 On Iteration in Bisection 7
 a: 0.00060  b:-0.00016

 -0.20309 = (-0.21372 + -0.19247)/2.0
 sum -  nocc_ = 0.00021854
 On Iteration in Bisection 8
 a: 0.00022  b:-0.00016

 -0.20841 = (-0.21372 + -0.20309)/2.0
 sum -  nocc_ = 0.00002845
 On Iteration in Bisection 9
 a: 0.00003  b:-0.00016

 -0.21106 = (-0.21372 + -0.20841)/2.0
 sum -  nocc_ = -0.00006643
 On Iteration in Bisection 10
 a: -0.00007  b:-0.00016

 -0.20973 = (-0.21106 + -0.20841)/2.0
 sum -  nocc_ = -0.00001898
 On Iteration in Bisection 11
 a: -0.00002  b:-0.00007

 -0.20907 = (-0.20973 + -0.20841)/2.0
 sum -  nocc_ = 0.00000473
 On Iteration in Bisection 12
 a: 0.00000  b:-0.00002

 -0.20940 = (-0.20973 + -0.20907)/2.0
 sum -  nocc_ = -0.00000713
 On Iteration in Bisection 13
 a: -0.00001  b:-0.00002

 -0.20924 = (-0.20940 + -0.20907)/2.0
 sum -  nocc_ = -0.00000120
 On Iteration in Bisection 14
 a: -0.00000  b:-0.00001

 -0.20915 = (-0.20924 + -0.20907)/2.0
 sum -  nocc_ = 0.00000177
 On Iteration in Bisection 15
 a: 0.00000  b:-0.00000

 -0.20919 = (-0.20924 + -0.20915)/2.0
 sum -  nocc_ = 0.00000029
 On Iteration in Bisection 16
 a: 0.00000  b:-0.00000

 -0.20921 = (-0.20924 + -0.20919)/2.0
 sum -  nocc_ = -0.00000045
 On Iteration in Bisection 17
 a: -0.00000  b:-0.00000

 -0.20920 = (-0.20921 + -0.20919)/2.0
 sum -  nocc_ = -0.00000008
 On Iteration in Bisection 18
 a: -0.00000  b:-0.00000

 -0.20920 = (-0.20920 + -0.20919)/2.0
 sum -  nocc_ = 0.00000010
 On Iteration in Bisection 19
 a: 0.00000  b:-0.00000

 -0.20920 = (-0.20920 + -0.20920)/2.0
 sum -  nocc_ = 0.00000001
 ef = -0.20920 sum = 1.00000 

 Iter: 8  T:    20000.000  val:-0.209202  sumni 0.00000
 ne = 1.0000

 iter:9  failiter:9  energy:     -1.986890019218  total:     -1.104928004902  error:      0.000000266654
 In Bisection function HOMO = -0.639  LUMO =  4.802

 2.08147 = (-0.63875 + 4.80169)/2.0
 sum -  nocc_ = 6.09852701
 On Iteration in Bisection 0
 a: 6.09853  b:-0.50000

 0.72136 = (-0.63875 + 2.08147)/2.0
 sum -  nocc_ = 1.99214526
 On Iteration in Bisection 1
 a: 1.99215  b:-0.50000

 0.04130 = (-0.63875 + 0.72136)/2.0
 sum -  nocc_ = 0.05603243
 On Iteration in Bisection 2
 a: 0.05603  b:-0.50000

 -0.29873 = (-0.63875 + 0.04130)/2.0
 sum -  nocc_ = -0.00436188
 On Iteration in Bisection 3
 a: -0.00436  b:-0.50000

 -0.12871 = (-0.29873 + 0.04130)/2.0
 sum -  nocc_ = 0.00370634
 On Iteration in Bisection 4
 a: 0.00371  b:-0.00436

 -0.21372 = (-0.29873 + -0.12871)/2.0
 sum -  nocc_ = -0.00016143
 On Iteration in Bisection 5
 a: -0.00016  b:-0.00436

 -0.17121 = (-0.21372 + -0.12871)/2.0
 sum -  nocc_ = 0.00143898
 On Iteration in Bisection 6
 a: 0.00144  b:-0.00016

 -0.19247 = (-0.21372 + -0.17121)/2.0
 sum -  nocc_ = 0.00060464
 On Iteration in Bisection 7
 a: 0.00060  b:-0.00016

 -0.20309 = (-0.21372 + -0.19247)/2.0
 sum -  nocc_ = 0.00021854
 On Iteration in Bisection 8
 a: 0.00022  b:-0.00016

 -0.20841 = (-0.21372 + -0.20309)/2.0
 sum -  nocc_ = 0.00002845
 On Iteration in Bisection 9
 a: 0.00003  b:-0.00016

 -0.21106 = (-0.21372 + -0.20841)/2.0
 sum -  nocc_ = -0.00006643
 On Iteration in Bisection 10
 a: -0.00007  b:-0.00016

 -0.20973 = (-0.21106 + -0.20841)/2.0
 sum -  nocc_ = -0.00001898
 On Iteration in Bisection 11
 a: -0.00002  b:-0.00007

 -0.20907 = (-0.20973 + -0.20841)/2.0
 sum -  nocc_ = 0.00000473
 On Iteration in Bisection 12
 a: 0.00000  b:-0.00002

 -0.20940 = (-0.20973 + -0.20907)/2.0
 sum -  nocc_ = -0.00000712
 On Iteration in Bisection 13
 a: -0.00001  b:-0.00002

 -0.20924 = (-0.20940 + -0.20907)/2.0
 sum -  nocc_ = -0.00000119
 On Iteration in Bisection 14
 a: -0.00000  b:-0.00001

 -0.20915 = (-0.20924 + -0.20907)/2.0
 sum -  nocc_ = 0.00000177
 On Iteration in Bisection 15
 a: 0.00000  b:-0.00000

 -0.20919 = (-0.20924 + -0.20915)/2.0
 sum -  nocc_ = 0.00000029
 On Iteration in Bisection 16
 a: 0.00000  b:-0.00000

 -0.20921 = (-0.20924 + -0.20919)/2.0
 sum -  nocc_ = -0.00000045
 On Iteration in Bisection 17
 a: -0.00000  b:-0.00000

 -0.20920 = (-0.20921 + -0.20919)/2.0
 sum -  nocc_ = -0.00000008
 On Iteration in Bisection 18
 a: -0.00000  b:-0.00000

 -0.20920 = (-0.20920 + -0.20919)/2.0
 sum -  nocc_ = 0.00000010
 On Iteration in Bisection 19
 a: 0.00000  b:-0.00000

 -0.20920 = (-0.20920 + -0.20920)/2.0
 sum -  nocc_ = 0.00000001
 ef = -0.20920 sum = 1.00000 

 Iter: 9  T:    20000.000  val:-0.209202  sumni 0.00000
 ne = 1.0000

 iter:10  failiter:10  energy:     -1.986889959812  total:     -1.104927945495  error:      0.000000059407
 In Bisection function HOMO = -0.639  LUMO =  4.802

 2.08147 = (-0.63875 + 4.80169)/2.0
 sum -  nocc_ = 6.09852705
 On Iteration in Bisection 0
 a: 6.09853  b:-0.50000

 0.72136 = (-0.63875 + 2.08147)/2.0
 sum -  nocc_ = 1.99214527
 On Iteration in Bisection 1
 a: 1.99215  b:-0.50000

 0.04130 = (-0.63875 + 0.72136)/2.0
 sum -  nocc_ = 0.05603244
 On Iteration in Bisection 2
 a: 0.05603  b:-0.50000

 -0.29873 = (-0.63875 + 0.04130)/2.0
 sum -  nocc_ = -0.00436187
 On Iteration in Bisection 3
 a: -0.00436  b:-0.50000

 -0.12871 = (-0.29873 + 0.04130)/2.0
 sum -  nocc_ = 0.00370634
 On Iteration in Bisection 4
 a: 0.00371  b:-0.00436

 -0.21372 = (-0.29873 + -0.12871)/2.0
 sum -  nocc_ = -0.00016143
 On Iteration in Bisection 5
 a: -0.00016  b:-0.00436

 -0.17121 = (-0.21372 + -0.12871)/2.0
 sum -  nocc_ = 0.00143898
 On Iteration in Bisection 6
 a: 0.00144  b:-0.00016

 -0.19247 = (-0.21372 + -0.17121)/2.0
 sum -  nocc_ = 0.00060464
 On Iteration in Bisection 7
 a: 0.00060  b:-0.00016

 -0.20309 = (-0.21372 + -0.19247)/2.0
 sum -  nocc_ = 0.00021854
 On Iteration in Bisection 8
 a: 0.00022  b:-0.00016

 -0.20841 = (-0.21372 + -0.20309)/2.0
 sum -  nocc_ = 0.00002845
 On Iteration in Bisection 9
 a: 0.00003  b:-0.00016

 -0.21106 = (-0.21372 + -0.20841)/2.0
 sum -  nocc_ = -0.00006643
 On Iteration in Bisection 10
 a: -0.00007  b:-0.00016

 -0.20973 = (-0.21106 + -0.20841)/2.0
 sum -  nocc_ = -0.00001898
 On Iteration in Bisection 11
 a: -0.00002  b:-0.00007

 -0.20907 = (-0.20973 + -0.20841)/2.0
 sum -  nocc_ = 0.00000474
 On Iteration in Bisection 12
 a: 0.00000  b:-0.00002

 -0.20940 = (-0.20973 + -0.20907)/2.0
 sum -  nocc_ = -0.00000712
 On Iteration in Bisection 13
 a: -0.00001  b:-0.00002

 -0.20924 = (-0.20940 + -0.20907)/2.0
 sum -  nocc_ = -0.00000119
 On Iteration in Bisection 14
 a: -0.00000  b:-0.00001

 -0.20915 = (-0.20924 + -0.20907)/2.0
 sum -  nocc_ = 0.00000177
 On Iteration in Bisection 15
 a: 0.00000  b:-0.00000

 -0.20919 = (-0.20924 + -0.20915)/2.0
 sum -  nocc_ = 0.00000029
 On Iteration in Bisection 16
 a: 0.00000  b:-0.00000

 -0.20921 = (-0.20924 + -0.20919)/2.0
 sum -  nocc_ = -0.00000045
 On Iteration in Bisection 17
 a: -0.00000  b:-0.00000

 -0.20920 = (-0.20921 + -0.20919)/2.0
 sum -  nocc_ = -0.00000008
 On Iteration in Bisection 18
 a: -0.00000  b:-0.00000

 -0.20920 = (-0.20920 + -0.20919)/2.0
 sum -  nocc_ = 0.00000010
 On Iteration in Bisection 19
 a: 0.00000  b:-0.00000

 -0.20920 = (-0.20920 + -0.20920)/2.0
 sum -  nocc_ = 0.00000001
 ef = -0.20920 sum = 1.00000 

 Iter: 10  T:    20000.000  val:-0.209202  sumni 0.00000
 ne = 1.0000

 iter:11  failiter:11  energy:     -1.986889947612  total:     -1.104927933295  error:      0.000000012200
 In Bisection function HOMO = -0.639  LUMO =  4.802

 2.08147 = (-0.63875 + 4.80169)/2.0
 sum -  nocc_ = 6.09852705
 On Iteration in Bisection 0
 a: 6.09853  b:-0.50000

 0.72136 = (-0.63875 + 2.08147)/2.0
 sum -  nocc_ = 1.99214527
 On Iteration in Bisection 1
 a: 1.99215  b:-0.50000

 0.04130 = (-0.63875 + 0.72136)/2.0
 sum -  nocc_ = 0.05603244
 On Iteration in Bisection 2
 a: 0.05603  b:-0.50000

 -0.29873 = (-0.63875 + 0.04130)/2.0
 sum -  nocc_ = -0.00436187
 On Iteration in Bisection 3
 a: -0.00436  b:-0.50000

 -0.12871 = (-0.29873 + 0.04130)/2.0
 sum -  nocc_ = 0.00370634
 On Iteration in Bisection 4
 a: 0.00371  b:-0.00436

 -0.21372 = (-0.29873 + -0.12871)/2.0
 sum -  nocc_ = -0.00016143
 On Iteration in Bisection 5
 a: -0.00016  b:-0.00436

 -0.17121 = (-0.21372 + -0.12871)/2.0
 sum -  nocc_ = 0.00143898
 On Iteration in Bisection 6
 a: 0.00144  b:-0.00016

 -0.19247 = (-0.21372 + -0.17121)/2.0
 sum -  nocc_ = 0.00060464
 On Iteration in Bisection 7
 a: 0.00060  b:-0.00016

 -0.20309 = (-0.21372 + -0.19247)/2.0
 sum -  nocc_ = 0.00021854
 On Iteration in Bisection 8
 a: 0.00022  b:-0.00016

 -0.20841 = (-0.21372 + -0.20309)/2.0
 sum -  nocc_ = 0.00002845
 On Iteration in Bisection 9
 a: 0.00003  b:-0.00016

 -0.21106 = (-0.21372 + -0.20841)/2.0
 sum -  nocc_ = -0.00006643
 On Iteration in Bisection 10
 a: -0.00007  b:-0.00016

 -0.20973 = (-0.21106 + -0.20841)/2.0
 sum -  nocc_ = -0.00001898
 On Iteration in Bisection 11
 a: -0.00002  b:-0.00007

 -0.20907 = (-0.20973 + -0.20841)/2.0
 sum -  nocc_ = 0.00000474
 On Iteration in Bisection 12
 a: 0.00000  b:-0.00002

 -0.20940 = (-0.20973 + -0.20907)/2.0
 sum -  nocc_ = -0.00000712
 On Iteration in Bisection 13
 a: -0.00001  b:-0.00002

 -0.20924 = (-0.20940 + -0.20907)/2.0
 sum -  nocc_ = -0.00000119
 On Iteration in Bisection 14
 a: -0.00000  b:-0.00001

 -0.20915 = (-0.20924 + -0.20907)/2.0
 sum -  nocc_ = 0.00000177
 On Iteration in Bisection 15
 a: 0.00000  b:-0.00000

 -0.20919 = (-0.20924 + -0.20915)/2.0
 sum -  nocc_ = 0.00000029
 On Iteration in Bisection 16
 a: 0.00000  b:-0.00000

 -0.20921 = (-0.20924 + -0.20919)/2.0
 sum -  nocc_ = -0.00000045
 On Iteration in Bisection 17
 a: -0.00000  b:-0.00000

 -0.20920 = (-0.20921 + -0.20919)/2.0
 sum -  nocc_ = -0.00000008
 On Iteration in Bisection 18
 a: -0.00000  b:-0.00000

 -0.20920 = (-0.20920 + -0.20919)/2.0
 sum -  nocc_ = 0.00000010
 On Iteration in Bisection 19
 a: 0.00000  b:-0.00000

 -0.20920 = (-0.20920 + -0.20920)/2.0
 sum -  nocc_ = 0.00000001
 ef = -0.20920 sum = 1.00000 

 Iter: 11  T:    20000.000  val:-0.209202  sumni 0.00000
 ne = 1.0000

 iter:12  failiter:12  energy:     -1.986889945124  total:     -1.104927930807  error:      0.000000002488
 In Bisection function HOMO = -0.639  LUMO =  4.802

 2.08147 = (-0.63875 + 4.80169)/2.0
 sum -  nocc_ = 6.09852706
 On Iteration in Bisection 0
 a: 6.09853  b:-0.50000

 0.72136 = (-0.63875 + 2.08147)/2.0
 sum -  nocc_ = 1.99214527
 On Iteration in Bisection 1
 a: 1.99215  b:-0.50000

 0.04130 = (-0.63875 + 0.72136)/2.0
 sum -  nocc_ = 0.05603244
 On Iteration in Bisection 2
 a: 0.05603  b:-0.50000

 -0.29873 = (-0.63875 + 0.04130)/2.0
 sum -  nocc_ = -0.00436187
 On Iteration in Bisection 3
 a: -0.00436  b:-0.50000

 -0.12871 = (-0.29873 + 0.04130)/2.0
 sum -  nocc_ = 0.00370634
 On Iteration in Bisection 4
 a: 0.00371  b:-0.00436

 -0.21372 = (-0.29873 + -0.12871)/2.0
 sum -  nocc_ = -0.00016143
 On Iteration in Bisection 5
 a: -0.00016  b:-0.00436

 -0.17121 = (-0.21372 + -0.12871)/2.0
 sum -  nocc_ = 0.00143898
 On Iteration in Bisection 6
 a: 0.00144  b:-0.00016

 -0.19247 = (-0.21372 + -0.17121)/2.0
 sum -  nocc_ = 0.00060464
 On Iteration in Bisection 7
 a: 0.00060  b:-0.00016

 -0.20309 = (-0.21372 + -0.19247)/2.0
 sum -  nocc_ = 0.00021854
 On Iteration in Bisection 8
 a: 0.00022  b:-0.00016

 -0.20841 = (-0.21372 + -0.20309)/2.0
 sum -  nocc_ = 0.00002845
 On Iteration in Bisection 9
 a: 0.00003  b:-0.00016

 -0.21106 = (-0.21372 + -0.20841)/2.0
 sum -  nocc_ = -0.00006643
 On Iteration in Bisection 10
 a: -0.00007  b:-0.00016

 -0.20973 = (-0.21106 + -0.20841)/2.0
 sum -  nocc_ = -0.00001898
 On Iteration in Bisection 11
 a: -0.00002  b:-0.00007

 -0.20907 = (-0.20973 + -0.20841)/2.0
 sum -  nocc_ = 0.00000474
 On Iteration in Bisection 12
 a: 0.00000  b:-0.00002

 -0.20940 = (-0.20973 + -0.20907)/2.0
 sum -  nocc_ = -0.00000712
 On Iteration in Bisection 13
 a: -0.00001  b:-0.00002

 -0.20924 = (-0.20940 + -0.20907)/2.0
 sum -  nocc_ = -0.00000119
 On Iteration in Bisection 14
 a: -0.00000  b:-0.00001

 -0.20915 = (-0.20924 + -0.20907)/2.0
 sum -  nocc_ = 0.00000177
 On Iteration in Bisection 15
 a: 0.00000  b:-0.00000

 -0.20919 = (-0.20924 + -0.20915)/2.0
 sum -  nocc_ = 0.00000029
 On Iteration in Bisection 16
 a: 0.00000  b:-0.00000

 -0.20921 = (-0.20924 + -0.20919)/2.0
 sum -  nocc_ = -0.00000045
 On Iteration in Bisection 17
 a: -0.00000  b:-0.00000

 -0.20920 = (-0.20921 + -0.20919)/2.0
 sum -  nocc_ = -0.00000008
 On Iteration in Bisection 18
 a: -0.00000  b:-0.00000

 -0.20920 = (-0.20920 + -0.20919)/2.0
 sum -  nocc_ = 0.00000010
 On Iteration in Bisection 19
 a: 0.00000  b:-0.00000

 -0.20920 = (-0.20920 + -0.20920)/2.0
 sum -  nocc_ = 0.00000001
 ef = -0.20920 sum = 1.00000 

 Iter: 12  T:    20000.000  val:-0.209202  sumni 0.00000
 ne = 1.0000

 iter:13  failiter:13  energy:     -1.986889944618  total:     -1.104927930302  error:      0.000000000506
 In Bisection function HOMO = -0.639  LUMO =  4.802

 2.08147 = (-0.63875 + 4.80169)/2.0
 sum -  nocc_ = 6.09852706
 On Iteration in Bisection 0
 a: 6.09853  b:-0.50000

 0.72136 = (-0.63875 + 2.08147)/2.0
 sum -  nocc_ = 1.99214527
 On Iteration in Bisection 1
 a: 1.99215  b:-0.50000

 0.04130 = (-0.63875 + 0.72136)/2.0
 sum -  nocc_ = 0.05603244
 On Iteration in Bisection 2
 a: 0.05603  b:-0.50000

 -0.29873 = (-0.63875 + 0.04130)/2.0
 sum -  nocc_ = -0.00436187
 On Iteration in Bisection 3
 a: -0.00436  b:-0.50000

 -0.12871 = (-0.29873 + 0.04130)/2.0
 sum -  nocc_ = 0.00370634
 On Iteration in Bisection 4
 a: 0.00371  b:-0.00436

 -0.21372 = (-0.29873 + -0.12871)/2.0
 sum -  nocc_ = -0.00016143
 On Iteration in Bisection 5
 a: -0.00016  b:-0.00436

 -0.17121 = (-0.21372 + -0.12871)/2.0
 sum -  nocc_ = 0.00143898
 On Iteration in Bisection 6
 a: 0.00144  b:-0.00016

 -0.19247 = (-0.21372 + -0.17121)/2.0
 sum -  nocc_ = 0.00060464
 On Iteration in Bisection 7
 a: 0.00060  b:-0.00016

 -0.20309 = (-0.21372 + -0.19247)/2.0
 sum -  nocc_ = 0.00021854
 On Iteration in Bisection 8
 a: 0.00022  b:-0.00016

 -0.20841 = (-0.21372 + -0.20309)/2.0
 sum -  nocc_ = 0.00002845
 On Iteration in Bisection 9
 a: 0.00003  b:-0.00016

 -0.21106 = (-0.21372 + -0.20841)/2.0
 sum -  nocc_ = -0.00006643
 On Iteration in Bisection 10
 a: -0.00007  b:-0.00016

 -0.20973 = (-0.21106 + -0.20841)/2.0
 sum -  nocc_ = -0.00001898
 On Iteration in Bisection 11
 a: -0.00002  b:-0.00007

 -0.20907 = (-0.20973 + -0.20841)/2.0
 sum -  nocc_ = 0.00000474
 On Iteration in Bisection 12
 a: 0.00000  b:-0.00002

 -0.20940 = (-0.20973 + -0.20907)/2.0
 sum -  nocc_ = -0.00000712
 On Iteration in Bisection 13
 a: -0.00001  b:-0.00002

 -0.20924 = (-0.20940 + -0.20907)/2.0
 sum -  nocc_ = -0.00000119
 On Iteration in Bisection 14
 a: -0.00000  b:-0.00001

 -0.20915 = (-0.20924 + -0.20907)/2.0
 sum -  nocc_ = 0.00000177
 On Iteration in Bisection 15
 a: 0.00000  b:-0.00000

 -0.20919 = (-0.20924 + -0.20915)/2.0
 sum -  nocc_ = 0.00000029
 On Iteration in Bisection 16
 a: 0.00000  b:-0.00000

 -0.20921 = (-0.20924 + -0.20919)/2.0
 sum -  nocc_ = -0.00000045
 On Iteration in Bisection 17
 a: -0.00000  b:-0.00000

 -0.20920 = (-0.20921 + -0.20919)/2.0
 sum -  nocc_ = -0.00000008
 On Iteration in Bisection 18
 a: -0.00000  b:-0.00000

 -0.20920 = (-0.20920 + -0.20919)/2.0
 sum -  nocc_ = 0.00000010
 On Iteration in Bisection 19
 a: 0.00000  b:-0.00000

 -0.20920 = (-0.20920 + -0.20920)/2.0
 sum -  nocc_ = 0.00000001
 ef = -0.20920 sum = 1.00000 

 Iter: 13  T:    20000.000  val:-0.209202  sumni 0.00000
 ne = 1.0000

 iter:14  failiter:14  energy:     -1.986889944516  total:     -1.104927930199  error:      0.000000000103
 In Bisection function HOMO = -0.639  LUMO =  4.802

 2.08147 = (-0.63875 + 4.80169)/2.0
 sum -  nocc_ = 6.09852706
 On Iteration in Bisection 0
 a: 6.09853  b:-0.50000

 0.72136 = (-0.63875 + 2.08147)/2.0
 sum -  nocc_ = 1.99214527
 On Iteration in Bisection 1
 a: 1.99215  b:-0.50000

 0.04130 = (-0.63875 + 0.72136)/2.0
 sum -  nocc_ = 0.05603244
 On Iteration in Bisection 2
 a: 0.05603  b:-0.50000

 -0.29873 = (-0.63875 + 0.04130)/2.0
 sum -  nocc_ = -0.00436187
 On Iteration in Bisection 3
 a: -0.00436  b:-0.50000

 -0.12871 = (-0.29873 + 0.04130)/2.0
 sum -  nocc_ = 0.00370634
 On Iteration in Bisection 4
 a: 0.00371  b:-0.00436

 -0.21372 = (-0.29873 + -0.12871)/2.0
 sum -  nocc_ = -0.00016143
 On Iteration in Bisection 5
 a: -0.00016  b:-0.00436

 -0.17121 = (-0.21372 + -0.12871)/2.0
 sum -  nocc_ = 0.00143898
 On Iteration in Bisection 6
 a: 0.00144  b:-0.00016

 -0.19247 = (-0.21372 + -0.17121)/2.0
 sum -  nocc_ = 0.00060464
 On Iteration in Bisection 7
 a: 0.00060  b:-0.00016

 -0.20309 = (-0.21372 + -0.19247)/2.0
 sum -  nocc_ = 0.00021854
 On Iteration in Bisection 8
 a: 0.00022  b:-0.00016

 -0.20841 = (-0.21372 + -0.20309)/2.0
 sum -  nocc_ = 0.00002845
 On Iteration in Bisection 9
 a: 0.00003  b:-0.00016

 -0.21106 = (-0.21372 + -0.20841)/2.0
 sum -  nocc_ = -0.00006643
 On Iteration in Bisection 10
 a: -0.00007  b:-0.00016

 -0.20973 = (-0.21106 + -0.20841)/2.0
 sum -  nocc_ = -0.00001898
 On Iteration in Bisection 11
 a: -0.00002  b:-0.00007

 -0.20907 = (-0.20973 + -0.20841)/2.0
 sum -  nocc_ = 0.00000474
 On Iteration in Bisection 12
 a: 0.00000  b:-0.00002

 -0.20940 = (-0.20973 + -0.20907)/2.0
 sum -  nocc_ = -0.00000712
 On Iteration in Bisection 13
 a: -0.00001  b:-0.00002

 -0.20924 = (-0.20940 + -0.20907)/2.0
 sum -  nocc_ = -0.00000119
 On Iteration in Bisection 14
 a: -0.00000  b:-0.00001

 -0.20915 = (-0.20924 + -0.20907)/2.0
 sum -  nocc_ = 0.00000177
 On Iteration in Bisection 15
 a: 0.00000  b:-0.00000

 -0.20919 = (-0.20924 + -0.20915)/2.0
 sum -  nocc_ = 0.00000029
 On Iteration in Bisection 16
 a: 0.00000  b:-0.00000

 -0.20921 = (-0.20924 + -0.20919)/2.0
 sum -  nocc_ = -0.00000045
 On Iteration in Bisection 17
 a: -0.00000  b:-0.00000

 -0.20920 = (-0.20921 + -0.20919)/2.0
 sum -  nocc_ = -0.00000008
 On Iteration in Bisection 18
 a: -0.00000  b:-0.00000

 -0.20920 = (-0.20920 + -0.20919)/2.0
 sum -  nocc_ = 0.00000010
 On Iteration in Bisection 19
 a: 0.00000  b:-0.00000

 -0.20920 = (-0.20920 + -0.20920)/2.0
 sum -  nocc_ = 0.00000001
 ef = -0.20920 sum = 1.00000 

 Iter: 14  T:    20000.000  val:-0.209202  sumni 0.00000
 ne = 1.0000

 iter:15  failiter:15  energy:     -1.986889944495  total:     -1.104927930178  error:      0.000000000021
 In Bisection function HOMO = -0.639  LUMO =  4.802

 2.08147 = (-0.63875 + 4.80169)/2.0
 sum -  nocc_ = 6.09852706
 On Iteration in Bisection 0
 a: 6.09853  b:-0.50000

 0.72136 = (-0.63875 + 2.08147)/2.0
 sum -  nocc_ = 1.99214527
 On Iteration in Bisection 1
 a: 1.99215  b:-0.50000

 0.04130 = (-0.63875 + 0.72136)/2.0
 sum -  nocc_ = 0.05603244
 On Iteration in Bisection 2
 a: 0.05603  b:-0.50000

 -0.29873 = (-0.63875 + 0.04130)/2.0
 sum -  nocc_ = -0.00436187
 On Iteration in Bisection 3
 a: -0.00436  b:-0.50000

 -0.12871 = (-0.29873 + 0.04130)/2.0
 sum -  nocc_ = 0.00370634
 On Iteration in Bisection 4
 a: 0.00371  b:-0.00436

 -0.21372 = (-0.29873 + -0.12871)/2.0
 sum -  nocc_ = -0.00016143
 On Iteration in Bisection 5
 a: -0.00016  b:-0.00436

 -0.17121 = (-0.21372 + -0.12871)/2.0
 sum -  nocc_ = 0.00143898
 On Iteration in Bisection 6
 a: 0.00144  b:-0.00016

 -0.19247 = (-0.21372 + -0.17121)/2.0
 sum -  nocc_ = 0.00060464
 On Iteration in Bisection 7
 a: 0.00060  b:-0.00016

 -0.20309 = (-0.21372 + -0.19247)/2.0
 sum -  nocc_ = 0.00021854
 On Iteration in Bisection 8
 a: 0.00022  b:-0.00016

 -0.20841 = (-0.21372 + -0.20309)/2.0
 sum -  nocc_ = 0.00002845
 On Iteration in Bisection 9
 a: 0.00003  b:-0.00016

 -0.21106 = (-0.21372 + -0.20841)/2.0
 sum -  nocc_ = -0.00006643
 On Iteration in Bisection 10
 a: -0.00007  b:-0.00016

 -0.20973 = (-0.21106 + -0.20841)/2.0
 sum -  nocc_ = -0.00001898
 On Iteration in Bisection 11
 a: -0.00002  b:-0.00007

 -0.20907 = (-0.20973 + -0.20841)/2.0
 sum -  nocc_ = 0.00000474
 On Iteration in Bisection 12
 a: 0.00000  b:-0.00002

 -0.20940 = (-0.20973 + -0.20907)/2.0
 sum -  nocc_ = -0.00000712
 On Iteration in Bisection 13
 a: -0.00001  b:-0.00002

 -0.20924 = (-0.20940 + -0.20907)/2.0
 sum -  nocc_ = -0.00000119
 On Iteration in Bisection 14
 a: -0.00000  b:-0.00001

 -0.20915 = (-0.20924 + -0.20907)/2.0
 sum -  nocc_ = 0.00000177
 On Iteration in Bisection 15
 a: 0.00000  b:-0.00000

 -0.20919 = (-0.20924 + -0.20915)/2.0
 sum -  nocc_ = 0.00000029
 On Iteration in Bisection 16
 a: 0.00000  b:-0.00000

 -0.20921 = (-0.20924 + -0.20919)/2.0
 sum -  nocc_ = -0.00000045
 On Iteration in Bisection 17
 a: -0.00000  b:-0.00000

 -0.20920 = (-0.20921 + -0.20919)/2.0
 sum -  nocc_ = -0.00000008
 On Iteration in Bisection 18
 a: -0.00000  b:-0.00000

 -0.20920 = (-0.20920 + -0.20919)/2.0
 sum -  nocc_ = 0.00000010
 On Iteration in Bisection 19
 a: 0.00000  b:-0.00000

 -0.20920 = (-0.20920 + -0.20920)/2.0
 sum -  nocc_ = 0.00000001
 ef = -0.20920 sum = 1.00000 

 Iter: 15  T:    20000.000  val:-0.209202  sumni 0.00000
 ne = 1.0000

 iter:16  failiter:16  energy:     -1.986889944491  total:     -1.104927930174  error:      0.000000000004
 In Bisection function HOMO = -0.639  LUMO =  4.802

 2.08147 = (-0.63875 + 4.80169)/2.0
 sum -  nocc_ = 6.09852706
 On Iteration in Bisection 0
 a: 6.09853  b:-0.50000

 0.72136 = (-0.63875 + 2.08147)/2.0
 sum -  nocc_ = 1.99214527
 On Iteration in Bisection 1
 a: 1.99215  b:-0.50000

 0.04130 = (-0.63875 + 0.72136)/2.0
 sum -  nocc_ = 0.05603244
 On Iteration in Bisection 2
 a: 0.05603  b:-0.50000

 -0.29873 = (-0.63875 + 0.04130)/2.0
 sum -  nocc_ = -0.00436187
 On Iteration in Bisection 3
 a: -0.00436  b:-0.50000

 -0.12871 = (-0.29873 + 0.04130)/2.0
 sum -  nocc_ = 0.00370634
 On Iteration in Bisection 4
 a: 0.00371  b:-0.00436

 -0.21372 = (-0.29873 + -0.12871)/2.0
 sum -  nocc_ = -0.00016143
 On Iteration in Bisection 5
 a: -0.00016  b:-0.00436

 -0.17121 = (-0.21372 + -0.12871)/2.0
 sum -  nocc_ = 0.00143898
 On Iteration in Bisection 6
 a: 0.00144  b:-0.00016

 -0.19247 = (-0.21372 + -0.17121)/2.0
 sum -  nocc_ = 0.00060464
 On Iteration in Bisection 7
 a: 0.00060  b:-0.00016

 -0.20309 = (-0.21372 + -0.19247)/2.0
 sum -  nocc_ = 0.00021854
 On Iteration in Bisection 8
 a: 0.00022  b:-0.00016

 -0.20841 = (-0.21372 + -0.20309)/2.0
 sum -  nocc_ = 0.00002845
 On Iteration in Bisection 9
 a: 0.00003  b:-0.00016

 -0.21106 = (-0.21372 + -0.20841)/2.0
 sum -  nocc_ = -0.00006643
 On Iteration in Bisection 10
 a: -0.00007  b:-0.00016

 -0.20973 = (-0.21106 + -0.20841)/2.0
 sum -  nocc_ = -0.00001898
 On Iteration in Bisection 11
 a: -0.00002  b:-0.00007

 -0.20907 = (-0.20973 + -0.20841)/2.0
 sum -  nocc_ = 0.00000474
 On Iteration in Bisection 12
 a: 0.00000  b:-0.00002

 -0.20940 = (-0.20973 + -0.20907)/2.0
 sum -  nocc_ = -0.00000712
 On Iteration in Bisection 13
 a: -0.00001  b:-0.00002

 -0.20924 = (-0.20940 + -0.20907)/2.0
 sum -  nocc_ = -0.00000119
 On Iteration in Bisection 14
 a: -0.00000  b:-0.00001

 -0.20915 = (-0.20924 + -0.20907)/2.0
 sum -  nocc_ = 0.00000177
 On Iteration in Bisection 15
 a: 0.00000  b:-0.00000

 -0.20919 = (-0.20924 + -0.20915)/2.0
 sum -  nocc_ = 0.00000029
 On Iteration in Bisection 16
 a: 0.00000  b:-0.00000

 -0.20921 = (-0.20924 + -0.20919)/2.0
 sum -  nocc_ = -0.00000045
 On Iteration in Bisection 17
 a: -0.00000  b:-0.00000

 -0.20920 = (-0.20921 + -0.20919)/2.0
 sum -  nocc_ = -0.00000008
 On Iteration in Bisection 18
 a: -0.00000  b:-0.00000

 -0.20920 = (-0.20920 + -0.20919)/2.0
 sum -  nocc_ = 0.00000010
 On Iteration in Bisection 19
 a: 0.00000  b:-0.00000

 -0.20920 = (-0.20920 + -0.20920)/2.0
 sum -  nocc_ = 0.00000001
 ef = -0.20920 sum = 1.00000 

 Iter: 16  T:    20000.000  val:-0.209202  sumni 0.00000
 ne = 1.0000

 iter:17  failiter:17  energy:     -1.986889944490  total:     -1.104927930173  error:      0.000000000001
 FTHFEnergy =    -1.104928
 FD_dis[0] = 0.99886781 with -0.638752 eig value
 FD_dis[1] = 0.00109965 with 0.222198 eig value
 FD_dis[2] = 0.00003255 with 0.445203 eig value
 FD_dis[3] = 0.00000000 with 1.057109 eig value
 FD_dis[4] = 0.00000000 with 1.313040 eig value
 FD_dis[5] = 0.00000000 with 1.313040 eig value
 FD_dis[6] = 0.00000000 with 2.077793 eig value
 FD_dis[7] = 0.00000000 with 2.137553 eig value
 FD_dis[8] = 0.00000000 with 2.137553 eig value
 FD_dis[9] = 0.00000000 with 4.801686 eig value
*** PSI4 exiting successfully. Buy a developer a beer!
