    -----------------------------------------------------------------------
          PSI4: An Open-Source Ab Initio Electronic Structure Package
                              PSI 4.0 Driver

               Git: Rev {master} 556e8139d3cfa1f96ccffe2cdf22cc56a185d2b2

    J. M. Turney, A. C. Simmonett, R. M. Parrish, E. G. Hohenstein,
    F. A. Evangelista, J. T. Fermann, B. J. Mintz, L. A. Burns, J. J. Wilke,
    M. L. Abrams, N. J. Russ, M. L. Leininger, C. L. Janssen, E. T. Seidl,
    W. D. Allen, H. F. Schaefer, R. A. King, E. F. Valeev, C. D. Sherrill,
    and T. D. Crawford, WIREs Comput. Mol. Sci. 2, 556-565 (2012)
    (doi: 10.1002/wcms.93)

                         Additional Contributions by
    A. E. DePrince, M. Saitow, U. Bozkaya, A. Yu. Sokolov
    -----------------------------------------------------------------------

    Process ID:  14570
    PSI4DATADIR: /Users/kevinhannon/Programs/psi4cmake/psi4/lib
    Memory level set to 256.000 MB

  ==> Input File <==

--------------------------------------------------------------------------

# PYTHONPATH must include directory above plugin directory.
#     Define either externally or here, then import plugin.
sys.path.insert(0, '/Users/kevinhannon/Programs/Quantum_Programs/Quantum-Programs/GS/')
import scf

molecule {
0 1
H
H 1 1.90000
symmetry c1
units angstrom
}


set {
  basis cc-pvdz
  reference rhf
  scf_type  pk
}

set scf {
  DO_FTHF true
  MAX_ITER 130
  MAX_TEMP 20000
  TEMP_INCREMENT 0
  bisect  true
  bisect_iter  40
}
energy('rhf')
energy('scf')


--------------------------------------------------------------------------

*** tstart() called on Kevins-MacBook-Pro.local
*** at Sun Apr 12 15:46:02 2015

/Users/kevinhannon/Programs/Quantum_Programs/Quantum-Programs/GS/scf/scf.so loaded.

*** tstart() called on Kevins-MacBook-Pro.local
*** at Sun Apr 12 15:46:02 2015


         ---------------------------------------------------------
                                   SCF
            by Justin Turney, Rob Parrish, and Andy Simmonett
                              RHF Reference
                        1 Threads,    256 MiB Core
         ---------------------------------------------------------

  ==> Geometry <==

    Molecular point group: c1
    Full point group: D_inf_h

    Geometry (in Angstrom), charge = 0, multiplicity = 1:

       Center              X                  Y                   Z       
    ------------   -----------------  -----------------  -----------------
           H          0.000000000000     0.000000000000    -0.950000000000
           H          0.000000000000     0.000000000000     0.950000000000

  Running in c1 symmetry.

  Rotational constants: A = ************  B =      9.26689  C =      9.26689 [cm^-1]
  Rotational constants: A = ************  B = 277814.46135  C = 277814.46135 [MHz]
  Nuclear repulsion =    0.278514320310526

  Charge       = 0
  Multiplicity = 1
  Electrons    = 2
  Nalpha       = 1
  Nbeta        = 1

  ==> Algorithm <==

  SCF Algorithm Type is PK.
  DIIS enabled.
  MOM disabled.
  Fractional occupation disabled.
  Guess Type is CORE.
  Energy threshold   = 1.00e-06
  Density threshold  = 1.00e-06
  Integral threshold = 0.00e+00

  ==> Primary Basis <==

  Basis Set: CC-PVDZ
    Number of shells: 6
    Number of basis function: 10
    Number of Cartesian functions: 10
    Spherical Harmonics?: true
    Max angular momentum: 1

  ==> Pre-Iterations <==

   -------------------------------------------------------
    Irrep   Nso     Nmo     Nalpha   Nbeta   Ndocc  Nsocc
   -------------------------------------------------------
     A         10      10       0       0       0       0
   -------------------------------------------------------
    Total      10      10       1       1       1       0
   -------------------------------------------------------

  Starting with a DF guess...

 OEINTS: Overlap, kinetic, potential, dipole, and quadrupole integrals
         stored in file 35.

  ==> Integral Setup <==

  ==> DFJK: Density-Fitted J/K Matrices <==

    J tasked:                  Yes
    K tasked:                  Yes
    wK tasked:                  No
    OpenMP threads:              1
    Integrals threads:           1
    Memory (MB):               183
    Algorithm:                Core
    Integral Cache:           NONE
    Schwarz Cutoff:          1E-12
    Fitting Condition:       1E-12

   => Auxiliary Basis Set <=

  Basis Set: 
    Number of shells: 18
    Number of basis function: 46
    Number of Cartesian functions: 50
    Spherical Harmonics?: true
    Max angular momentum: 2

  Minimum eigenvalue in the overlap matrix is 2.0962876078E-01.
  Using Symmetric Orthogonalization.
  SCF Guess: Core (One-Electron) Hamiltonian.

  ==> Iterations <==

                           Total Energy        Delta E     RMS |[F,P]|

   @DF-RHF iter   1:    -0.91367311161387   -9.13673e-01   1.45259e-02 
   @DF-RHF iter   2:    -0.93524141830639   -2.15683e-02   2.49265e-03 DIIS
   @DF-RHF iter   3:    -0.93592489838558   -6.83480e-04   8.33630e-05 DIIS
   @DF-RHF iter   4:    -0.93592551110022   -6.12715e-07   4.60617e-07 DIIS

  DF guess converged.

  ==> Integral Setup <==

 MINTS: Wrapper to libmints.
   by Justin Turney

   Calculation information:
      Number of atoms:                   2
      Number of AO shells:               6
      Number of SO shells:               6
      Number of primitives:             10
      Number of atomic orbitals:        10
      Number of basis functions:        10

      Number of irreps:                  1
      Integral cutoff                 0.00e+00
      Number of functions per irrep: [  10 ]

 OEINTS: Overlap, kinetic, potential, dipole, and quadrupole integrals
         stored in file 35.

      Computing two-electron integrals...done
      Computed 512 non-zero two-electron integrals.
        Stored in file 33.

	Batch   1 pq = [       0,      55] index = [             0,1540]
  ==> DiskJK: Disk-Based J/K Matrices <==

    J tasked:                  Yes
    K tasked:                  Yes
    wK tasked:                  No
    Memory (MB):               183
    Schwarz Cutoff:          1E-12

   @RHF iter   5:    -0.93591768081113    7.83029e-06   2.78076e-06 DIIS
   @RHF iter   6:    -0.93591768158063   -7.69493e-10   4.69724e-07 DIIS

  ==> Post-Iterations <==

    Orbital Energies (a.u.)
    -----------------------

    Doubly Occupied:                                                      

       1A     -0.394723  

    Virtual:                                                              

       2A     -0.023101     3A      0.653309     4A      0.675153  
       5A      1.306979     6A      1.445965     7A      1.445965  
       8A      1.515211     9A      1.515211    10A      1.773963  

    Final Occupation by Irrep:
              A 
    DOCC [     1 ]

  Energy converged.

  @RHF Final Energy:    -0.93591768158063

   => Energetics <=

    Nuclear Repulsion Energy =              0.2785143203105263
    One-Electron Energy =                  -1.6394175069424484
    Two-Electron Energy =                   0.4249855050512961
    DFT Exchange-Correlation Energy =       0.0000000000000000
    Empirical Dispersion Energy =           0.0000000000000000
    PCM Polarization Energy =               0.0000000000000000
    EFP Energy =                            0.0000000000000000
    Total Energy =                         -0.9359176815806260

    Alert: EFP and PCM quantities not currently incorporated into SCF psivars.

Properties will be evaluated at   0.000000,   0.000000,   0.000000 Bohr
  ==> Properties <==


Properties computed using the SCF density matrix

  Nuclear Dipole Moment: (a.u.)
     X:     0.0000      Y:     0.0000      Z:     0.0000

  Electronic Dipole Moment: (a.u.)
     X:     0.0000      Y:    -0.0000      Z:     0.0000

  Dipole Moment: (a.u.)
     X:     0.0000      Y:    -0.0000      Z:     0.0000     Total:     0.0000

  Dipole Moment: (Debye)
     X:     0.0000      Y:    -0.0000      Z:     0.0000     Total:     0.0000


  Saving occupied orbitals to File 180.

*** tstop() called on Kevins-MacBook-Pro.local at Sun Apr 12 15:46:02 2015
Module time:
	user time   =       0.20 seconds =       0.00 minutes
	system time =       0.01 seconds =       0.00 minutes
	total time  =          0 seconds =       0.00 minutes
Total time:
	user time   =       0.21 seconds =       0.00 minutes
	system time =       0.01 seconds =       0.00 minutes
	total time  =          0 seconds =       0.00 minutes

*** tstart() called on Kevins-MacBook-Pro.local
*** at Sun Apr 12 15:46:02 2015


         ---------------------------------------------------------
                                   SCF
            by Justin Turney, Rob Parrish, and Andy Simmonett
                              RHF Reference
                        1 Threads,    256 MiB Core
         ---------------------------------------------------------

  ==> Geometry <==

    Molecular point group: c1
    Full point group: D_inf_h

    Geometry (in Angstrom), charge = 0, multiplicity = 1:

       Center              X                  Y                   Z       
    ------------   -----------------  -----------------  -----------------
           H          0.000000000000     0.000000000000    -0.950000000000
           H          0.000000000000     0.000000000000     0.950000000000

  Running in c1 symmetry.

  Rotational constants: A = ************  B =      9.26689  C =      9.26689 [cm^-1]
  Rotational constants: A = ************  B = 277814.46135  C = 277814.46135 [MHz]
  Nuclear repulsion =    0.278514320310526

  Charge       = 0
  Multiplicity = 1
  Electrons    = 2
  Nalpha       = 1
  Nbeta        = 1

  ==> Algorithm <==

  SCF Algorithm Type is PK.
  DIIS enabled.
  MOM disabled.
  Fractional occupation disabled.
  Guess Type is CORE.
  Energy threshold   = 1.00e-08
  Density threshold  = 1.00e-08
  Integral threshold = 0.00e+00

  ==> Primary Basis <==

  Basis Set: CC-PVDZ
    Number of shells: 6
    Number of basis function: 10
    Number of Cartesian functions: 10
    Spherical Harmonics?: true
    Max angular momentum: 1

  ==> Pre-Iterations <==

   -------------------------------------------------------
    Irrep   Nso     Nmo     Nalpha   Nbeta   Ndocc  Nsocc
   -------------------------------------------------------
     A         10      10       0       0       0       0
   -------------------------------------------------------
    Total      10      10       1       1       1       0
   -------------------------------------------------------

  Starting with a DF guess...

 OEINTS: Overlap, kinetic, potential, dipole, and quadrupole integrals
         stored in file 35.

  ==> Integral Setup <==

  ==> DFJK: Density-Fitted J/K Matrices <==

    J tasked:                  Yes
    K tasked:                  Yes
    wK tasked:                  No
    OpenMP threads:              1
    Integrals threads:           1
    Memory (MB):               183
    Algorithm:                Core
    Integral Cache:           NONE
    Schwarz Cutoff:          1E-12
    Fitting Condition:       1E-12

   => Auxiliary Basis Set <=

  Basis Set: 
    Number of shells: 18
    Number of basis function: 46
    Number of Cartesian functions: 50
    Spherical Harmonics?: true
    Max angular momentum: 2

  Minimum eigenvalue in the overlap matrix is 2.0962876078E-01.
  Using Symmetric Orthogonalization.
  SCF Guess: Core (One-Electron) Hamiltonian.

  ==> Iterations <==

                           Total Energy        Delta E     RMS |[F,P]|

   @DF-RHF iter   1:    -0.91367311161387   -9.13673e-01   1.45259e-02 
   @DF-RHF iter   2:    -0.93524141830639   -2.15683e-02   2.49265e-03 DIIS
   @DF-RHF iter   3:    -0.93592489838558   -6.83480e-04   8.33630e-05 DIIS
   @DF-RHF iter   4:    -0.93592551110022   -6.12715e-07   4.60617e-07 DIIS
   @DF-RHF iter   5:    -0.93592551111523   -1.50107e-11   1.63090e-11 DIIS

  DF guess converged.

  ==> Integral Setup <==

 MINTS: Wrapper to libmints.
   by Justin Turney

   Calculation information:
      Number of atoms:                   2
      Number of AO shells:               6
      Number of SO shells:               6
      Number of primitives:             10
      Number of atomic orbitals:        10
      Number of basis functions:        10

      Number of irreps:                  1
      Integral cutoff                 0.00e+00
      Number of functions per irrep: [  10 ]

 OEINTS: Overlap, kinetic, potential, dipole, and quadrupole integrals
         stored in file 35.

      Computing two-electron integrals...done
      Computed 512 non-zero two-electron integrals.
        Stored in file 33.

	Batch   1 pq = [       0,      55] index = [             0,1540]
  ==> DiskJK: Disk-Based J/K Matrices <==

    J tasked:                  Yes
    K tasked:                  Yes
    wK tasked:                  No
    Memory (MB):               183
    Schwarz Cutoff:          1E-12

   @RHF iter   6:    -0.93591768081114    7.83030e-06   2.78075e-06 DIIS
   @RHF iter   7:    -0.93591768158063   -7.69485e-10   4.69722e-07 DIIS
   @RHF iter   8:    -0.93591768160467   -2.40485e-11   1.62073e-08 DIIS
   @RHF iter   9:    -0.93591768160470   -2.44249e-14   1.59357e-14 DIIS

  ==> Post-Iterations <==

    Orbital Energies (a.u.)
    -----------------------

    Doubly Occupied:                                                      

       1A     -0.394723  

    Virtual:                                                              

       2A     -0.023101     3A      0.653309     4A      0.675153  
       5A      1.306979     6A      1.445965     7A      1.445965  
       8A      1.515211     9A      1.515211    10A      1.773963  

    Final Occupation by Irrep:
              A 
    DOCC [     1 ]

  Energy converged.

  @RHF Final Energy:    -0.93591768160470

   => Energetics <=

    Nuclear Repulsion Energy =              0.2785143203105263
    One-Electron Energy =                  -1.6394188119343474
    Two-Electron Energy =                   0.4249868100191220
    DFT Exchange-Correlation Energy =       0.0000000000000000
    Empirical Dispersion Energy =           0.0000000000000000
    PCM Polarization Energy =               0.0000000000000000
    EFP Energy =                            0.0000000000000000
    Total Energy =                         -0.9359176816046990

    Alert: EFP and PCM quantities not currently incorporated into SCF psivars.

Properties will be evaluated at   0.000000,   0.000000,   0.000000 Bohr
  ==> Properties <==


Properties computed using the SCF density matrix

  Nuclear Dipole Moment: (a.u.)
     X:     0.0000      Y:     0.0000      Z:     0.0000

  Electronic Dipole Moment: (a.u.)
     X:     0.0000      Y:    -0.0000      Z:     0.0000

  Dipole Moment: (a.u.)
     X:     0.0000      Y:    -0.0000      Z:     0.0000     Total:     0.0000

  Dipole Moment: (Debye)
     X:     0.0000      Y:    -0.0000      Z:     0.0000     Total:     0.0000


  Saving occupied orbitals to File 180.

*** tstop() called on Kevins-MacBook-Pro.local at Sun Apr 12 15:46:03 2015
Module time:
	user time   =       0.20 seconds =       0.00 minutes
	system time =       0.02 seconds =       0.00 minutes
	total time  =          1 seconds =       0.02 minutes
Total time:
	user time   =       0.42 seconds =       0.01 minutes
	system time =       0.03 seconds =       0.00 minutes
	total time  =          1 seconds =       0.02 minutes
Reading options from the SCF block
Calling plugin scf.so.
    Molecular point group: c1
    Full point group: D_inf_h

    Geometry (in Angstrom), charge = 0, multiplicity = 1:

       Center              X                  Y                   Z       
    ------------   -----------------  -----------------  -----------------
           H          0.000000000000     0.000000000000    -0.950000000000
           H          0.000000000000     0.000000000000     0.950000000000


    Nuclear repulsion energy:       0.27851432

  ## Overlap (Symmetry 0) ##
  Irrep: 1 Size: 10 x 10

                 1                   2                   3                   4                   5

    1     1.00000000000000     0.68486025149275     0.00000000000000     0.00000000000000     0.00000000000000
    2     0.68486025149275     1.00000000000000     0.00000000000000     0.00000000000000     0.00000000000000
    3     0.00000000000000     0.00000000000000     1.00000000000000     0.00000000000000     0.00000000000000
    4     0.00000000000000     0.00000000000000     0.00000000000000     1.00000000000000     0.00000000000000
    5     0.00000000000000     0.00000000000000     0.00000000000000     0.00000000000000     1.00000000000000
    6     0.04018566903016     0.19432416478952     0.05253253619542     0.00000000000000     0.00000000000000
    7     0.19432416478952     0.45548878119761     0.13446640299337     0.00000000000000     0.00000000000000
    8    -0.05253253619542    -0.13446640299337    -0.07721471256399     0.00000000000000     0.00000000000000
    9     0.00000000000000     0.00000000000000     0.00000000000000     0.00922280283000     0.00000000000000
   10     0.00000000000000     0.00000000000000     0.00000000000000     0.00000000000000     0.00922280283000

                 6                   7                   8                   9                  10

    1     0.04018566903016     0.19432416478952    -0.05253253619542     0.00000000000000     0.00000000000000
    2     0.19432416478952     0.45548878119761    -0.13446640299337     0.00000000000000     0.00000000000000
    3     0.05253253619542     0.13446640299337    -0.07721471256399     0.00000000000000     0.00000000000000
    4     0.00000000000000     0.00000000000000     0.00000000000000     0.00922280283000     0.00000000000000
    5     0.00000000000000     0.00000000000000     0.00000000000000     0.00000000000000     0.00922280283000
    6     1.00000000000000     0.68486025149275    -0.00000000000000     0.00000000000000     0.00000000000000
    7     0.68486025149275     1.00000000000000     0.00000000000000     0.00000000000000     0.00000000000000
    8    -0.00000000000000     0.00000000000000     1.00000000000000     0.00000000000000     0.00000000000000
    9     0.00000000000000     0.00000000000000     0.00000000000000     1.00000000000000     0.00000000000000
   10     0.00000000000000     0.00000000000000     0.00000000000000     0.00000000000000     1.00000000000000



  ## Kinetic (Symmetry 0) ##
  Irrep: 1 Size: 10 x 10

                 1                   2                   3                   4                   5

    1     0.96945722711242     0.20123413106538     0.00000000000000     0.00000000000000     0.00000000000000
    2     0.20123413106538     0.18300000000000     0.00000000000000     0.00000000000000     0.00000000000000
    3     0.00000000000000     0.00000000000000     1.81750000000000     0.00000000000000     0.00000000000000
    4     0.00000000000000     0.00000000000000     0.00000000000000     1.81750000000000     0.00000000000000
    5     0.00000000000000     0.00000000000000     0.00000000000000     0.00000000000000     1.81750000000000
    6    -0.02867082670519     0.00905513474755    -0.03447537303067     0.00000000000000     0.00000000000000
    7     0.00905513474755     0.03965536733208     0.03240026294058     0.00000000000000     0.00000000000000
    8     0.03447537303067    -0.03240026294058     0.05987552895569     0.00000000000000     0.00000000000000
    9     0.00000000000000     0.00000000000000     0.00000000000000    -0.01465759270219     0.00000000000000
   10     0.00000000000000     0.00000000000000     0.00000000000000     0.00000000000000    -0.01465759270219

                 6                   7                   8                   9                  10

    1    -0.02867082670519     0.00905513474755     0.03447537303067     0.00000000000000     0.00000000000000
    2     0.00905513474755     0.03965536733208    -0.03240026294058     0.00000000000000     0.00000000000000
    3    -0.03447537303067     0.03240026294058     0.05987552895569     0.00000000000000     0.00000000000000
    4     0.00000000000000     0.00000000000000     0.00000000000000    -0.01465759270219     0.00000000000000
    5     0.00000000000000     0.00000000000000     0.00000000000000     0.00000000000000    -0.01465759270219
    6     0.96945722711242     0.20123413106538    -0.00000000000000     0.00000000000000     0.00000000000000
    7     0.20123413106538     0.18300000000000     0.00000000000000     0.00000000000000     0.00000000000000
    8    -0.00000000000000     0.00000000000000     1.81750000000000     0.00000000000000     0.00000000000000
    9     0.00000000000000     0.00000000000000     0.00000000000000     1.81750000000000     0.00000000000000
   10     0.00000000000000     0.00000000000000     0.00000000000000     0.00000000000000     1.81750000000000



  ## Potential (Symmetry 0) ##
  Irrep: 1 Size: 10 x 10

                 1                   2                   3                   4                   5

    1    -1.65637579459968    -0.84042824465846    -0.04880130427360     0.00000000000000     0.00000000000000
    2    -0.84042824465846    -0.83251280980985    -0.04577505228158     0.00000000000000     0.00000000000000
    3    -0.04880130427360    -0.04577505228158    -1.20045378046780     0.00000000000000     0.00000000000000
    4     0.00000000000000     0.00000000000000     0.00000000000000    -1.17816587611754     0.00000000000000
    5     0.00000000000000     0.00000000000000     0.00000000000000     0.00000000000000    -1.17816587611754
    6    -0.04546867111245    -0.23192774388474    -0.05747266384739     0.00000000000000     0.00000000000000
    7    -0.23192774388474    -0.40097680021752    -0.14913839449276     0.00000000000000     0.00000000000000
    8     0.05747266384739     0.14913839449276     0.08392518762044     0.00000000000000     0.00000000000000
    9     0.00000000000000     0.00000000000000     0.00000000000000    -0.00918290326230     0.00000000000000
   10     0.00000000000000     0.00000000000000     0.00000000000000     0.00000000000000    -0.00918290326230

                 6                   7                   8                   9                  10

    1    -0.04546867111245    -0.23192774388474     0.05747266384739     0.00000000000000     0.00000000000000
    2    -0.23192774388474    -0.40097680021752     0.14913839449276     0.00000000000000     0.00000000000000
    3    -0.05747266384739    -0.14913839449276     0.08392518762044     0.00000000000000     0.00000000000000
    4     0.00000000000000     0.00000000000000     0.00000000000000    -0.00918290326230     0.00000000000000
    5     0.00000000000000     0.00000000000000     0.00000000000000     0.00000000000000    -0.00918290326230
    6    -1.65637579459968    -0.84042824465846     0.04880130427360     0.00000000000000     0.00000000000000
    7    -0.84042824465846    -0.83251280980985     0.04577505228158     0.00000000000000     0.00000000000000
    8     0.04880130427360     0.04577505228158    -1.20045378046780     0.00000000000000     0.00000000000000
    9     0.00000000000000     0.00000000000000     0.00000000000000    -1.17816587611754     0.00000000000000
   10     0.00000000000000     0.00000000000000     0.00000000000000     0.00000000000000    -1.17816587611754



  ## One Electron Ints (Symmetry 0) ##
  Irrep: 1 Size: 10 x 10

                 1                   2                   3                   4                   5

    1    -0.68691856748726    -0.63919411359307    -0.04880130427360     0.00000000000000     0.00000000000000
    2    -0.63919411359307    -0.64951280980985    -0.04577505228158     0.00000000000000     0.00000000000000
    3    -0.04880130427360    -0.04577505228158     0.61704621953220     0.00000000000000     0.00000000000000
    4     0.00000000000000     0.00000000000000     0.00000000000000     0.63933412388247     0.00000000000000
    5     0.00000000000000     0.00000000000000     0.00000000000000     0.00000000000000     0.63933412388247
    6    -0.07413949781764    -0.22287260913720    -0.09194803687806     0.00000000000000     0.00000000000000
    7    -0.22287260913720    -0.36132143288544    -0.11673813155219     0.00000000000000     0.00000000000000
    8     0.09194803687806     0.11673813155219     0.14380071657613     0.00000000000000     0.00000000000000
    9     0.00000000000000     0.00000000000000     0.00000000000000    -0.02384049596449     0.00000000000000
   10     0.00000000000000     0.00000000000000     0.00000000000000     0.00000000000000    -0.02384049596449

                 6                   7                   8                   9                  10

    1    -0.07413949781764    -0.22287260913720     0.09194803687806     0.00000000000000     0.00000000000000
    2    -0.22287260913720    -0.36132143288544     0.11673813155219     0.00000000000000     0.00000000000000
    3    -0.09194803687806    -0.11673813155219     0.14380071657613     0.00000000000000     0.00000000000000
    4     0.00000000000000     0.00000000000000     0.00000000000000    -0.02384049596449     0.00000000000000
    5     0.00000000000000     0.00000000000000     0.00000000000000     0.00000000000000    -0.02384049596449
    6    -0.68691856748726    -0.63919411359307     0.04880130427360     0.00000000000000     0.00000000000000
    7    -0.63919411359307    -0.64951280980985     0.04577505228158     0.00000000000000     0.00000000000000
    8     0.04880130427360     0.04577505228158     0.61704621953220     0.00000000000000     0.00000000000000
    9     0.00000000000000     0.00000000000000     0.00000000000000     0.63933412388247     0.00000000000000
   10     0.00000000000000     0.00000000000000     0.00000000000000     0.00000000000000     0.63933412388247




	There are 0 unique integrals

  ## Fock (Symmetry 0) ##
  Irrep: 1 Size: 10 x 10

                 1                   2                   3                   4                   5

    1    -0.44951110931315    -0.36085397401594    -0.05568526682042     0.00000000000000     0.00000000000000
    2    -0.36085397401594    -0.32096789656160     0.04856128903273     0.00000000000000     0.00000000000000
    3    -0.05568526682042     0.04856128903273     0.65996674537338     0.00000000000000     0.00000000000000
    4     0.00000000000000     0.00000000000000     0.00000000000000     0.63960840522593     0.00000000000000
    5     0.00000000000000     0.00000000000000     0.00000000000000     0.00000000000000     0.63960840522593
    6     0.01528712543744    -0.02788158673255    -0.01097507200589     0.00000000000000     0.00000000000000
    7    -0.02788158673255    -0.10591965284186    -0.14585091170570    -0.00000000000000     0.00000000000000
    8     0.01097507200589     0.14585091170570     0.20410095365366     0.00000000000000     0.00000000000000
    9     0.00000000000000    -0.00000000000000     0.00000000000000    -0.02973947817430     0.00000000000000
   10     0.00000000000000     0.00000000000000     0.00000000000000     0.00000000000000    -0.02973947817430

                 6                   7                   8                   9                  10

    1     0.01528712543744    -0.02788158673255     0.01097507200589     0.00000000000000     0.00000000000000
    2    -0.02788158673255    -0.10591965284186     0.14585091170570    -0.00000000000000     0.00000000000000
    3    -0.01097507200589    -0.14585091170570     0.20410095365366     0.00000000000000     0.00000000000000
    4     0.00000000000000    -0.00000000000000     0.00000000000000    -0.02973947817430     0.00000000000000
    5     0.00000000000000     0.00000000000000     0.00000000000000     0.00000000000000    -0.02973947817430
    6    -0.44951110931315    -0.36085397401594     0.05568526682042     0.00000000000000     0.00000000000000
    7    -0.36085397401594    -0.32096789656160    -0.04856128903273    -0.00000000000000     0.00000000000000
    8     0.05568526682042    -0.04856128903273     0.65996674537338     0.00000000000000     0.00000000000000
    9     0.00000000000000    -0.00000000000000     0.00000000000000     0.63960840522593     0.00000000000000
   10     0.00000000000000     0.00000000000000     0.00000000000000     0.00000000000000     0.63960840522593



  ## C (Symmetry 0) ##
  Irrep: 1 Size: 10 x 10

                 1                   2                   3                   4                   5

    1     0.32666436640613     0.42289585298357     0.10081606029419    -0.00104369432079    -0.03093238205968
    2     0.57531404340658     0.29641491066154    -0.08516052886999    -0.10009352011033     0.24979186251845
    3     0.52633872838618    -0.49185252526824    -0.03281646993886    -0.04537531754818     0.06916113805066
    4    -0.40726018768772     0.56002738513741    -0.14331911052803    -0.00000000000000     0.00326092657291
    5     0.02314628769835     0.06701314533854    -0.70042807146360     0.00000000000000     0.00000000000000
    6     0.04614784429561     0.01861466812819    -0.00074491816357    -0.91797769329572     0.38359760687068
    7    -0.23036401381893    -0.07417894738079     0.01793231382785     0.41362978820282    -1.01365064045685
    8     0.06814401306175     0.00809682492431    -0.00599373500123    -0.72210599188147     0.03003218133214
    9     0.00187808014404    -0.00258256599576     0.00066091600378    -0.00000000000000    -0.70712933754853
   10     0.05559892219264    -0.13678421992503    -0.68834935360405    -0.00000000000000     0.00000000000000

                 6                   7                   8                   9                  10

    1     0.95092434315241     0.86729232155055    -0.06340274521006    -0.02968566014364    -0.03093238205968
    2    -1.07428312275554    -0.87789576519088    -0.01370356756172     0.03822875599098     0.24979186251844
    3     0.47746488641156    -0.52664470094484     0.02988734983300     0.01673335172533     0.06916113805066
    4     0.40726018768772    -0.56002738513741    -0.14331911052803    -0.00000000000000    -0.00326092657291
    5     0.02366007188064     0.06575440804538     0.70680664298837     0.00000000000000     0.00000000000000
    6    -0.00419096845874    -0.01722038690207    -0.00227200096098    -0.90510224886565     0.38359760687068
    7     0.17614285560412     0.21520404039522     0.00643056406936     0.35356542553854    -1.01365064045685
    8    -0.04440760263643    -0.07202610848635    -0.00075173838838     0.70923054745141     0.03003218133214
    9    -0.00187808014404     0.00258256599576     0.00066091600378    -0.00000000000000     0.70712933754853
   10    -0.05581476969554     0.13617196242154    -0.69483881575901    -0.00000000000000     0.00000000000000




 In Bisection function HOMO = -0.830  LUMO =  0.906

 0.03814 = (-0.82975 + 0.90603)/2.0
 sum -  nocc_ = 2.50660050
 On Iteration in Bisection 0
 a: 2.50660  b:-0.38715

 -0.39580 = (-0.82975 + 0.03814)/2.0
 sum -  nocc_ = 0.99723321
 On Iteration in Bisection 1
 a: 0.99723  b:-0.38715

 -0.61278 = (-0.82975 + -0.39580)/2.0
 sum -  nocc_ = 0.76510800
 On Iteration in Bisection 2
 a: 0.76511  b:-0.38715

 -0.72126 = (-0.82975 + -0.61278)/2.0
 sum -  nocc_ = 0.26086314
 On Iteration in Bisection 3
 a: 0.26086  b:-0.38715

 -0.77551 = (-0.82975 + -0.72126)/2.0
 sum -  nocc_ = -0.06757232
 On Iteration in Bisection 4
 a: -0.06757  b:-0.38715

 -0.74838 = (-0.77551 + -0.72126)/2.0
 sum -  nocc_ = 0.09817415
 On Iteration in Bisection 5
 a: 0.09817  b:-0.06757

 -0.76195 = (-0.77551 + -0.74838)/2.0
 sum -  nocc_ = 0.01535808
 On Iteration in Bisection 6
 a: 0.01536  b:-0.06757

 -0.76873 = (-0.77551 + -0.76195)/2.0
 sum -  nocc_ = -0.02613168
 On Iteration in Bisection 7
 a: -0.02613  b:-0.06757

 -0.76534 = (-0.76873 + -0.76195)/2.0
 sum -  nocc_ = -0.00538809
 On Iteration in Bisection 8
 a: -0.00539  b:-0.02613

 -0.76364 = (-0.76534 + -0.76195)/2.0
 sum -  nocc_ = 0.00498528
 On Iteration in Bisection 9
 a: 0.00499  b:-0.00539

 -0.76449 = (-0.76534 + -0.76364)/2.0
 sum -  nocc_ = -0.00020141
 On Iteration in Bisection 10
 a: -0.00020  b:-0.00539

 -0.76406 = (-0.76449 + -0.76364)/2.0
 sum -  nocc_ = 0.00239194
 On Iteration in Bisection 11
 a: 0.00239  b:-0.00020

 -0.76428 = (-0.76449 + -0.76406)/2.0
 sum -  nocc_ = 0.00109526
 On Iteration in Bisection 12
 a: 0.00110  b:-0.00020

 -0.76438 = (-0.76449 + -0.76428)/2.0
 sum -  nocc_ = 0.00044693
 On Iteration in Bisection 13
 a: 0.00045  b:-0.00020

 -0.76443 = (-0.76449 + -0.76438)/2.0
 sum -  nocc_ = 0.00012276
 On Iteration in Bisection 14
 a: 0.00012  b:-0.00020

 -0.76446 = (-0.76449 + -0.76443)/2.0
 sum -  nocc_ = -0.00003933
 On Iteration in Bisection 15
 a: -0.00004  b:-0.00020

 -0.76445 = (-0.76446 + -0.76443)/2.0
 sum -  nocc_ = 0.00004171
 On Iteration in Bisection 16
 a: 0.00004  b:-0.00004

 -0.76445 = (-0.76446 + -0.76445)/2.0
 sum -  nocc_ = 0.00000119
 On Iteration in Bisection 17
 a: 0.00000  b:-0.00004

 -0.76446 = (-0.76446 + -0.76445)/2.0
 sum -  nocc_ = -0.00001907
 On Iteration in Bisection 18
 a: -0.00002  b:-0.00004

 -0.76446 = (-0.76446 + -0.76445)/2.0
 sum -  nocc_ = -0.00000894
 On Iteration in Bisection 19
 a: -0.00001  b:-0.00002

 -0.76446 = (-0.76446 + -0.76445)/2.0
 sum -  nocc_ = -0.00000387
 On Iteration in Bisection 20
 a: -0.00000  b:-0.00001

 -0.76445 = (-0.76446 + -0.76445)/2.0
 sum -  nocc_ = -0.00000134
 On Iteration in Bisection 21
 a: -0.00000  b:-0.00000

 -0.76445 = (-0.76445 + -0.76445)/2.0
 sum -  nocc_ = -0.00000007
 On Iteration in Bisection 22
 a: -0.00000  b:-0.00000

 -0.76445 = (-0.76445 + -0.76445)/2.0
 sum -  nocc_ = 0.00000056
 On Iteration in Bisection 23
 a: 0.00000  b:-0.00000

 -0.76445 = (-0.76445 + -0.76445)/2.0
 sum -  nocc_ = 0.00000024
 On Iteration in Bisection 24
 a: 0.00000  b:-0.00000

 -0.76445 = (-0.76445 + -0.76445)/2.0
 sum -  nocc_ = 0.00000009
 On Iteration in Bisection 25
 a: 0.00000  b:-0.00000

 -0.76445 = (-0.76445 + -0.76445)/2.0
 sum -  nocc_ = 0.00000001
 ef = -0.76445 sum = 1.00000 

 Iter: 0  T:    20000.000  val:-0.764455  sumni 0.00000
 ne = 1.0000

Nuc Replusion =       0.278514320311
 1st iteration =      -0.183671408716
 In Bisection function HOMO = -0.211  LUMO =  1.930

 0.85926 = (-0.21150 + 1.93002)/2.0
 sum -  nocc_ = 2.16101975
 On Iteration in Bisection 0
 a: 2.16102  b:-0.48649

 0.32388 = (-0.21150 + 0.85926)/2.0
 sum -  nocc_ = 1.07257135
 On Iteration in Bisection 1
 a: 1.07257  b:-0.48649

 0.05619 = (-0.21150 + 0.32388)/2.0
 sum -  nocc_ = 0.47072679
 On Iteration in Bisection 2
 a: 0.47073  b:-0.48649

 -0.07766 = (-0.21150 + 0.05619)/2.0
 sum -  nocc_ = -0.00594146
 On Iteration in Bisection 3
 a: -0.00594  b:-0.48649

 -0.01073 = (-0.07766 + 0.05619)/2.0
 sum -  nocc_ = 0.20584519
 On Iteration in Bisection 4
 a: 0.20585  b:-0.00594

 -0.04419 = (-0.07766 + -0.01073)/2.0
 sum -  nocc_ = 0.09486671
 On Iteration in Bisection 5
 a: 0.09487  b:-0.00594

 -0.06092 = (-0.07766 + -0.04419)/2.0
 sum -  nocc_ = 0.04380894
 On Iteration in Bisection 6
 a: 0.04381  b:-0.00594

 -0.06929 = (-0.07766 + -0.06092)/2.0
 sum -  nocc_ = 0.01886123
 On Iteration in Bisection 7
 a: 0.01886  b:-0.00594

 -0.07347 = (-0.07766 + -0.06929)/2.0
 sum -  nocc_ = 0.00645351
 On Iteration in Bisection 8
 a: 0.00645  b:-0.00594

 -0.07556 = (-0.07766 + -0.07347)/2.0
 sum -  nocc_ = 0.00025591
 On Iteration in Bisection 9
 a: 0.00026  b:-0.00594

 -0.07661 = (-0.07766 + -0.07556)/2.0
 sum -  nocc_ = -0.00284262
 On Iteration in Bisection 10
 a: -0.00284  b:-0.00594

 -0.07609 = (-0.07661 + -0.07556)/2.0
 sum -  nocc_ = -0.00129334
 On Iteration in Bisection 11
 a: -0.00129  b:-0.00284

 -0.07583 = (-0.07609 + -0.07556)/2.0
 sum -  nocc_ = -0.00051871
 On Iteration in Bisection 12
 a: -0.00052  b:-0.00129

 -0.07569 = (-0.07583 + -0.07556)/2.0
 sum -  nocc_ = -0.00013140
 On Iteration in Bisection 13
 a: -0.00013  b:-0.00052

 -0.07563 = (-0.07569 + -0.07556)/2.0
 sum -  nocc_ = 0.00006225
 On Iteration in Bisection 14
 a: 0.00006  b:-0.00013

 -0.07566 = (-0.07569 + -0.07563)/2.0
 sum -  nocc_ = -0.00003457
 On Iteration in Bisection 15
 a: -0.00003  b:-0.00013

 -0.07565 = (-0.07566 + -0.07563)/2.0
 sum -  nocc_ = 0.00001384
 On Iteration in Bisection 16
 a: 0.00001  b:-0.00003

 -0.07565 = (-0.07566 + -0.07565)/2.0
 sum -  nocc_ = -0.00001037
 On Iteration in Bisection 17
 a: -0.00001  b:-0.00003

 -0.07565 = (-0.07565 + -0.07565)/2.0
 sum -  nocc_ = 0.00000174
 On Iteration in Bisection 18
 a: 0.00000  b:-0.00001

 -0.07565 = (-0.07565 + -0.07565)/2.0
 sum -  nocc_ = -0.00000432
 On Iteration in Bisection 19
 a: -0.00000  b:-0.00001

 -0.07565 = (-0.07565 + -0.07565)/2.0
 sum -  nocc_ = -0.00000129
 On Iteration in Bisection 20
 a: -0.00000  b:-0.00000

 -0.07565 = (-0.07565 + -0.07565)/2.0
 sum -  nocc_ = 0.00000022
 On Iteration in Bisection 21
 a: 0.00000  b:-0.00000

 -0.07565 = (-0.07565 + -0.07565)/2.0
 sum -  nocc_ = -0.00000053
 On Iteration in Bisection 22
 a: -0.00000  b:-0.00000

 -0.07565 = (-0.07565 + -0.07565)/2.0
 sum -  nocc_ = -0.00000016
 On Iteration in Bisection 23
 a: -0.00000  b:-0.00000

 -0.07565 = (-0.07565 + -0.07565)/2.0
 sum -  nocc_ = 0.00000003
 On Iteration in Bisection 24
 a: 0.00000  b:-0.00000

 -0.07565 = (-0.07565 + -0.07565)/2.0
 sum -  nocc_ = -0.00000006
 On Iteration in Bisection 25
 a: -0.00000  b:-0.00000

 -0.07565 = (-0.07565 + -0.07565)/2.0
 sum -  nocc_ = -0.00000001
 On Iteration in Bisection 26
 a: -0.00000  b:-0.00000

 -0.07565 = (-0.07565 + -0.07565)/2.0
 sum -  nocc_ = 0.00000001
 On Iteration in Bisection 27
 a: 0.00000  b:-0.00000

 -0.07565 = (-0.07565 + -0.07565)/2.0
 sum -  nocc_ = -0.00000000
 ef = -0.07565 sum = 1.00000 

 Iter: 0  T:    20000.000  val:-0.075650  sumni 0.00000
 ne = 1.0000

 iter:1  failiter:1  energy:     -0.951194651928  total:     -0.672680331617  error:     -0.015276970323
 In Bisection function HOMO = -0.314  LUMO =  1.867

 0.77658 = (-0.31424 + 1.86740)/2.0
 sum -  nocc_ = 2.27628092
 On Iteration in Bisection 0
 a: 2.27628  b:-0.46486

 0.23117 = (-0.31424 + 0.77658)/2.0
 sum -  nocc_ = 1.01221582
 On Iteration in Bisection 1
 a: 1.01222  b:-0.46486

 -0.04153 = (-0.31424 + 0.23117)/2.0
 sum -  nocc_ = 0.71666917
 On Iteration in Bisection 2
 a: 0.71667  b:-0.46486

 -0.17789 = (-0.31424 + -0.04153)/2.0
 sum -  nocc_ = 0.13470247
 On Iteration in Bisection 3
 a: 0.13470  b:-0.46486

 -0.24606 = (-0.31424 + -0.17789)/2.0
 sum -  nocc_ = -0.15761125
 On Iteration in Bisection 4
 a: -0.15761  b:-0.46486

 -0.21197 = (-0.24606 + -0.17789)/2.0
 sum -  nocc_ = -0.01117796
 On Iteration in Bisection 5
 a: -0.01118  b:-0.15761

 -0.19493 = (-0.21197 + -0.17789)/2.0
 sum -  nocc_ = 0.06136214
 On Iteration in Bisection 6
 a: 0.06136  b:-0.01118

 -0.20345 = (-0.21197 + -0.19493)/2.0
 sum -  nocc_ = 0.02504888
 On Iteration in Bisection 7
 a: 0.02505  b:-0.01118

 -0.20771 = (-0.21197 + -0.20345)/2.0
 sum -  nocc_ = 0.00693241
 On Iteration in Bisection 8
 a: 0.00693  b:-0.01118

 -0.20984 = (-0.21197 + -0.20771)/2.0
 sum -  nocc_ = -0.00212255
 On Iteration in Bisection 9
 a: -0.00212  b:-0.01118

 -0.20878 = (-0.20984 + -0.20771)/2.0
 sum -  nocc_ = 0.00240486
 On Iteration in Bisection 10
 a: 0.00240  b:-0.00212

 -0.20931 = (-0.20984 + -0.20878)/2.0
 sum -  nocc_ = 0.00014115
 On Iteration in Bisection 11
 a: 0.00014  b:-0.00212

 -0.20958 = (-0.20984 + -0.20931)/2.0
 sum -  nocc_ = -0.00099070
 On Iteration in Bisection 12
 a: -0.00099  b:-0.00212

 -0.20944 = (-0.20958 + -0.20931)/2.0
 sum -  nocc_ = -0.00042477
 On Iteration in Bisection 13
 a: -0.00042  b:-0.00099

 -0.20938 = (-0.20944 + -0.20931)/2.0
 sum -  nocc_ = -0.00014181
 On Iteration in Bisection 14
 a: -0.00014  b:-0.00042

 -0.20934 = (-0.20938 + -0.20931)/2.0
 sum -  nocc_ = -0.00000033
 On Iteration in Bisection 15
 a: -0.00000  b:-0.00014

 -0.20933 = (-0.20934 + -0.20931)/2.0
 sum -  nocc_ = 0.00007041
 On Iteration in Bisection 16
 a: 0.00007  b:-0.00000

 -0.20933 = (-0.20934 + -0.20933)/2.0
 sum -  nocc_ = 0.00003504
 On Iteration in Bisection 17
 a: 0.00004  b:-0.00000

 -0.20934 = (-0.20934 + -0.20933)/2.0
 sum -  nocc_ = 0.00001736
 On Iteration in Bisection 18
 a: 0.00002  b:-0.00000

 -0.20934 = (-0.20934 + -0.20934)/2.0
 sum -  nocc_ = 0.00000851
 On Iteration in Bisection 19
 a: 0.00001  b:-0.00000

 -0.20934 = (-0.20934 + -0.20934)/2.0
 sum -  nocc_ = 0.00000409
 On Iteration in Bisection 20
 a: 0.00000  b:-0.00000

 -0.20934 = (-0.20934 + -0.20934)/2.0
 sum -  nocc_ = 0.00000188
 On Iteration in Bisection 21
 a: 0.00000  b:-0.00000

 -0.20934 = (-0.20934 + -0.20934)/2.0
 sum -  nocc_ = 0.00000078
 On Iteration in Bisection 22
 a: 0.00000  b:-0.00000

 -0.20934 = (-0.20934 + -0.20934)/2.0
 sum -  nocc_ = 0.00000022
 On Iteration in Bisection 23
 a: 0.00000  b:-0.00000

 -0.20934 = (-0.20934 + -0.20934)/2.0
 sum -  nocc_ = -0.00000005
 On Iteration in Bisection 24
 a: -0.00000  b:-0.00000

 -0.20934 = (-0.20934 + -0.20934)/2.0
 sum -  nocc_ = 0.00000008
 On Iteration in Bisection 25
 a: 0.00000  b:-0.00000

 -0.20934 = (-0.20934 + -0.20934)/2.0
 sum -  nocc_ = 0.00000002
 On Iteration in Bisection 26
 a: 0.00000  b:-0.00000

 -0.20934 = (-0.20934 + -0.20934)/2.0
 sum -  nocc_ = -0.00000002
 On Iteration in Bisection 27
 a: -0.00000  b:-0.00000

 -0.20934 = (-0.20934 + -0.20934)/2.0
 sum -  nocc_ = -0.00000000
 ef = -0.20934 sum = 1.00000 

 Iter: 1  T:    20000.000  val:-0.209343  sumni 0.00000
 ne = 1.0000

 iter:2  failiter:2  energy:     -1.075107623182  total:     -0.796593302872  error:     -0.123912971254
 In Bisection function HOMO = -0.352  LUMO =  1.781

 0.71419 = (-0.35215 + 1.78053)/2.0
 sum -  nocc_ = 2.33846380
 On Iteration in Bisection 0
 a: 2.33846  b:-0.48916

 0.18102 = (-0.35215 + 0.71419)/2.0
 sum -  nocc_ = 0.98145069
 On Iteration in Bisection 1
 a: 0.98145  b:-0.48916

 -0.08556 = (-0.35215 + 0.18102)/2.0
 sum -  nocc_ = 0.40988474
 On Iteration in Bisection 2
 a: 0.40988  b:-0.48916

 -0.21885 = (-0.35215 + -0.08556)/2.0
 sum -  nocc_ = -0.02615166
 On Iteration in Bisection 3
 a: -0.02615  b:-0.48916

 -0.15221 = (-0.21885 + -0.08556)/2.0
 sum -  nocc_ = 0.16397749
 On Iteration in Bisection 4
 a: 0.16398  b:-0.02615

 -0.18553 = (-0.21885 + -0.15221)/2.0
 sum -  nocc_ = 0.06489039
 On Iteration in Bisection 5
 a: 0.06489  b:-0.02615

 -0.20219 = (-0.21885 + -0.18553)/2.0
 sum -  nocc_ = 0.01905321
 On Iteration in Bisection 6
 a: 0.01905  b:-0.02615

 -0.21052 = (-0.21885 + -0.20219)/2.0
 sum -  nocc_ = -0.00353443
 On Iteration in Bisection 7
 a: -0.00353  b:-0.02615

 -0.20636 = (-0.21052 + -0.20219)/2.0
 sum -  nocc_ = 0.00775126
 On Iteration in Bisection 8
 a: 0.00775  b:-0.00353

 -0.20844 = (-0.21052 + -0.20636)/2.0
 sum -  nocc_ = 0.00210786
 On Iteration in Bisection 9
 a: 0.00211  b:-0.00353

 -0.20948 = (-0.21052 + -0.20844)/2.0
 sum -  nocc_ = -0.00071324
 On Iteration in Bisection 10
 a: -0.00071  b:-0.00353

 -0.20896 = (-0.20948 + -0.20844)/2.0
 sum -  nocc_ = 0.00069730
 On Iteration in Bisection 11
 a: 0.00070  b:-0.00071

 -0.20922 = (-0.20948 + -0.20896)/2.0
 sum -  nocc_ = -0.00000797
 On Iteration in Bisection 12
 a: -0.00001  b:-0.00071

 -0.20909 = (-0.20922 + -0.20896)/2.0
 sum -  nocc_ = 0.00034466
 On Iteration in Bisection 13
 a: 0.00034  b:-0.00001

 -0.20916 = (-0.20922 + -0.20909)/2.0
 sum -  nocc_ = 0.00016835
 On Iteration in Bisection 14
 a: 0.00017  b:-0.00001

 -0.20919 = (-0.20922 + -0.20916)/2.0
 sum -  nocc_ = 0.00008019
 On Iteration in Bisection 15
 a: 0.00008  b:-0.00001

 -0.20921 = (-0.20922 + -0.20919)/2.0
 sum -  nocc_ = 0.00003611
 On Iteration in Bisection 16
 a: 0.00004  b:-0.00001

 -0.20921 = (-0.20922 + -0.20921)/2.0
 sum -  nocc_ = 0.00001407
 On Iteration in Bisection 17
 a: 0.00001  b:-0.00001

 -0.20922 = (-0.20922 + -0.20921)/2.0
 sum -  nocc_ = 0.00000305
 On Iteration in Bisection 18
 a: 0.00000  b:-0.00001

 -0.20922 = (-0.20922 + -0.20922)/2.0
 sum -  nocc_ = -0.00000246
 On Iteration in Bisection 19
 a: -0.00000  b:-0.00001

 -0.20922 = (-0.20922 + -0.20922)/2.0
 sum -  nocc_ = 0.00000030
 On Iteration in Bisection 20
 a: 0.00000  b:-0.00000

 -0.20922 = (-0.20922 + -0.20922)/2.0
 sum -  nocc_ = -0.00000108
 On Iteration in Bisection 21
 a: -0.00000  b:-0.00000

 -0.20922 = (-0.20922 + -0.20922)/2.0
 sum -  nocc_ = -0.00000039
 On Iteration in Bisection 22
 a: -0.00000  b:-0.00000

 -0.20922 = (-0.20922 + -0.20922)/2.0
 sum -  nocc_ = -0.00000005
 On Iteration in Bisection 23
 a: -0.00000  b:-0.00000

 -0.20922 = (-0.20922 + -0.20922)/2.0
 sum -  nocc_ = 0.00000012
 On Iteration in Bisection 24
 a: 0.00000  b:-0.00000

 -0.20922 = (-0.20922 + -0.20922)/2.0
 sum -  nocc_ = 0.00000004
 On Iteration in Bisection 25
 a: 0.00000  b:-0.00000

 -0.20922 = (-0.20922 + -0.20922)/2.0
 sum -  nocc_ = -0.00000001
 ef = -0.20922 sum = 1.00000 

 Iter: 2  T:    20000.000  val:-0.209219  sumni 0.00000
 ne = 1.0000

 iter:3  failiter:3  energy:     -1.130418399418  total:     -0.851904079108  error:     -0.055310776236
 In Bisection function HOMO = -0.373  LUMO =  1.769

 0.69805 = (-0.37328 + 1.76937)/2.0
 sum -  nocc_ = 2.27750798
 On Iteration in Bisection 0
 a: 2.27751  b:-0.49415

 0.16238 = (-0.37328 + 0.69805)/2.0
 sum -  nocc_ = 0.96576676
 On Iteration in Bisection 1
 a: 0.96577  b:-0.49415

 -0.10545 = (-0.37328 + 0.16238)/2.0
 sum -  nocc_ = 0.27334044
 On Iteration in Bisection 2
 a: 0.27334  b:-0.49415

 -0.23936 = (-0.37328 + -0.10545)/2.0
 sum -  nocc_ = -0.06121532
 On Iteration in Bisection 3
 a: -0.06122  b:-0.49415

 -0.17240 = (-0.23936 + -0.10545)/2.0
 sum -  nocc_ = 0.08280751
 On Iteration in Bisection 4
 a: 0.08281  b:-0.06122

 -0.20588 = (-0.23936 + -0.17240)/2.0
 sum -  nocc_ = 0.00997222
 On Iteration in Bisection 5
 a: 0.00997  b:-0.06122

 -0.22262 = (-0.23936 + -0.20588)/2.0
 sum -  nocc_ = -0.02509959
 On Iteration in Bisection 6
 a: -0.02510  b:-0.06122

 -0.21425 = (-0.22262 + -0.20588)/2.0
 sum -  nocc_ = -0.00752415
 On Iteration in Bisection 7
 a: -0.00752  b:-0.02510

 -0.21007 = (-0.21425 + -0.20588)/2.0
 sum -  nocc_ = 0.00122243
 On Iteration in Bisection 8
 a: 0.00122  b:-0.00752

 -0.21216 = (-0.21425 + -0.21007)/2.0
 sum -  nocc_ = -0.00314982
 On Iteration in Bisection 9
 a: -0.00315  b:-0.00752

 -0.21111 = (-0.21216 + -0.21007)/2.0
 sum -  nocc_ = -0.00096362
 On Iteration in Bisection 10
 a: -0.00096  b:-0.00315

 -0.21059 = (-0.21111 + -0.21007)/2.0
 sum -  nocc_ = 0.00012940
 On Iteration in Bisection 11
 a: 0.00013  b:-0.00096

 -0.21085 = (-0.21111 + -0.21059)/2.0
 sum -  nocc_ = -0.00041711
 On Iteration in Bisection 12
 a: -0.00042  b:-0.00096

 -0.21072 = (-0.21085 + -0.21059)/2.0
 sum -  nocc_ = -0.00014385
 On Iteration in Bisection 13
 a: -0.00014  b:-0.00042

 -0.21066 = (-0.21072 + -0.21059)/2.0
 sum -  nocc_ = -0.00000723
 On Iteration in Bisection 14
 a: -0.00001  b:-0.00014

 -0.21062 = (-0.21066 + -0.21059)/2.0
 sum -  nocc_ = 0.00006109
 On Iteration in Bisection 15
 a: 0.00006  b:-0.00001

 -0.21064 = (-0.21066 + -0.21062)/2.0
 sum -  nocc_ = 0.00002693
 On Iteration in Bisection 16
 a: 0.00003  b:-0.00001

 -0.21065 = (-0.21066 + -0.21064)/2.0
 sum -  nocc_ = 0.00000985
 On Iteration in Bisection 17
 a: 0.00001  b:-0.00001

 -0.21065 = (-0.21066 + -0.21065)/2.0
 sum -  nocc_ = 0.00000131
 On Iteration in Bisection 18
 a: 0.00000  b:-0.00001

 -0.21065 = (-0.21066 + -0.21065)/2.0
 sum -  nocc_ = -0.00000296
 On Iteration in Bisection 19
 a: -0.00000  b:-0.00001

 -0.21065 = (-0.21065 + -0.21065)/2.0
 sum -  nocc_ = -0.00000082
 On Iteration in Bisection 20
 a: -0.00000  b:-0.00000

 -0.21065 = (-0.21065 + -0.21065)/2.0
 sum -  nocc_ = 0.00000025
 On Iteration in Bisection 21
 a: 0.00000  b:-0.00000

 -0.21065 = (-0.21065 + -0.21065)/2.0
 sum -  nocc_ = -0.00000029
 On Iteration in Bisection 22
 a: -0.00000  b:-0.00000

 -0.21065 = (-0.21065 + -0.21065)/2.0
 sum -  nocc_ = -0.00000002
 On Iteration in Bisection 23
 a: -0.00000  b:-0.00000

 -0.21065 = (-0.21065 + -0.21065)/2.0
 sum -  nocc_ = 0.00000011
 On Iteration in Bisection 24
 a: 0.00000  b:-0.00000

 -0.21065 = (-0.21065 + -0.21065)/2.0
 sum -  nocc_ = 0.00000004
 On Iteration in Bisection 25
 a: 0.00000  b:-0.00000

 -0.21065 = (-0.21065 + -0.21065)/2.0
 sum -  nocc_ = 0.00000001
 On Iteration in Bisection 26
 a: 0.00000  b:-0.00000

 -0.21065 = (-0.21065 + -0.21065)/2.0
 sum -  nocc_ = -0.00000001
 ef = -0.21065 sum = 1.00000 

 Iter: 3  T:    20000.000  val:-0.210653  sumni 0.00000
 ne = 1.0000

 iter:4  failiter:4  energy:     -1.159002602456  total:     -0.880488282145  error:     -0.028584203038
 In Bisection function HOMO = -0.379  LUMO =  1.770

 0.69524 = (-0.37902 + 1.76951)/2.0
 sum -  nocc_ = 2.25661530
 On Iteration in Bisection 0
 a: 2.25662  b:-0.49516

 0.15811 = (-0.37902 + 0.69524)/2.0
 sum -  nocc_ = 0.95961865
 On Iteration in Bisection 1
 a: 0.95962  b:-0.49516

 -0.11046 = (-0.37902 + 0.15811)/2.0
 sum -  nocc_ = 0.23829547
 On Iteration in Bisection 2
 a: 0.23830  b:-0.49516

 -0.24474 = (-0.37902 + -0.11046)/2.0
 sum -  nocc_ = -0.06818795
 On Iteration in Bisection 3
 a: -0.06819  b:-0.49516

 -0.17760 = (-0.24474 + -0.11046)/2.0
 sum -  nocc_ = 0.06484045
 On Iteration in Bisection 4
 a: 0.06484  b:-0.06819

 -0.21117 = (-0.24474 + -0.17760)/2.0
 sum -  nocc_ = -0.00153875
 On Iteration in Bisection 5
 a: -0.00154  b:-0.06819

 -0.19438 = (-0.21117 + -0.17760)/2.0
 sum -  nocc_ = 0.03097236
 On Iteration in Bisection 6
 a: 0.03097  b:-0.00154

 -0.20278 = (-0.21117 + -0.19438)/2.0
 sum -  nocc_ = 0.01463559
 On Iteration in Bisection 7
 a: 0.01464  b:-0.00154

 -0.20697 = (-0.21117 + -0.20278)/2.0
 sum -  nocc_ = 0.00653932
 On Iteration in Bisection 8
 a: 0.00654  b:-0.00154

 -0.20907 = (-0.21117 + -0.20697)/2.0
 sum -  nocc_ = 0.00249941
 On Iteration in Bisection 9
 a: 0.00250  b:-0.00154

 -0.21012 = (-0.21117 + -0.20907)/2.0
 sum -  nocc_ = 0.00048029
 On Iteration in Bisection 10
 a: 0.00048  b:-0.00154

 -0.21065 = (-0.21117 + -0.21012)/2.0
 sum -  nocc_ = -0.00052922
 On Iteration in Bisection 11
 a: -0.00053  b:-0.00154

 -0.21038 = (-0.21065 + -0.21012)/2.0
 sum -  nocc_ = -0.00002447
 On Iteration in Bisection 12
 a: -0.00002  b:-0.00053

 -0.21025 = (-0.21038 + -0.21012)/2.0
 sum -  nocc_ = 0.00022791
 On Iteration in Bisection 13
 a: 0.00023  b:-0.00002

 -0.21032 = (-0.21038 + -0.21025)/2.0
 sum -  nocc_ = 0.00010172
 On Iteration in Bisection 14
 a: 0.00010  b:-0.00002

 -0.21035 = (-0.21038 + -0.21032)/2.0
 sum -  nocc_ = 0.00003863
 On Iteration in Bisection 15
 a: 0.00004  b:-0.00002

 -0.21037 = (-0.21038 + -0.21035)/2.0
 sum -  nocc_ = 0.00000708
 On Iteration in Bisection 16
 a: 0.00001  b:-0.00002

 -0.21037 = (-0.21038 + -0.21037)/2.0
 sum -  nocc_ = -0.00000869
 On Iteration in Bisection 17
 a: -0.00001  b:-0.00002

 -0.21037 = (-0.21037 + -0.21037)/2.0
 sum -  nocc_ = -0.00000081
 On Iteration in Bisection 18
 a: -0.00000  b:-0.00001

 -0.21037 = (-0.21037 + -0.21037)/2.0
 sum -  nocc_ = 0.00000314
 On Iteration in Bisection 19
 a: 0.00000  b:-0.00000

 -0.21037 = (-0.21037 + -0.21037)/2.0
 sum -  nocc_ = 0.00000116
 On Iteration in Bisection 20
 a: 0.00000  b:-0.00000

 -0.21037 = (-0.21037 + -0.21037)/2.0
 sum -  nocc_ = 0.00000018
 On Iteration in Bisection 21
 a: 0.00000  b:-0.00000

 -0.21037 = (-0.21037 + -0.21037)/2.0
 sum -  nocc_ = -0.00000031
 On Iteration in Bisection 22
 a: -0.00000  b:-0.00000

 -0.21037 = (-0.21037 + -0.21037)/2.0
 sum -  nocc_ = -0.00000007
 On Iteration in Bisection 23
 a: -0.00000  b:-0.00000

 -0.21037 = (-0.21037 + -0.21037)/2.0
 sum -  nocc_ = 0.00000005
 On Iteration in Bisection 24
 a: 0.00000  b:-0.00000

 -0.21037 = (-0.21037 + -0.21037)/2.0
 sum -  nocc_ = -0.00000001
 ef = -0.21037 sum = 1.00000 

 Iter: 4  T:    20000.000  val:-0.210370  sumni 0.00000
 ne = 1.0000

 iter:5  failiter:5  energy:     -1.166861746498  total:     -0.888347426187  error:     -0.007859144042
 In Bisection function HOMO = -0.380  LUMO =  1.770

 0.69474 = (-0.38037 + 1.76986)/2.0
 sum -  nocc_ = 2.25152989
 On Iteration in Bisection 0
 a: 2.25153  b:-0.49538

 0.15719 = (-0.38037 + 0.69474)/2.0
 sum -  nocc_ = 0.95799418
 On Iteration in Bisection 1
 a: 0.95799  b:-0.49538

 -0.11159 = (-0.38037 + 0.15719)/2.0
 sum -  nocc_ = 0.23018419
 On Iteration in Bisection 2
 a: 0.23018  b:-0.49538

 -0.24598 = (-0.38037 + -0.11159)/2.0
 sum -  nocc_ = -0.06969145
 On Iteration in Bisection 3
 a: -0.06969  b:-0.49538

 -0.17879 = (-0.24598 + -0.11159)/2.0
 sum -  nocc_ = 0.06083312
 On Iteration in Bisection 4
 a: 0.06083  b:-0.06969

 -0.21238 = (-0.24598 + -0.17879)/2.0
 sum -  nocc_ = -0.00406717
 On Iteration in Bisection 5
 a: -0.00407  b:-0.06969

 -0.19559 = (-0.21238 + -0.17879)/2.0
 sum -  nocc_ = 0.02776504
 On Iteration in Bisection 6
 a: 0.02777  b:-0.00407

 -0.20398 = (-0.21238 + -0.19559)/2.0
 sum -  nocc_ = 0.01178261
 On Iteration in Bisection 7
 a: 0.01178  b:-0.00407

 -0.20818 = (-0.21238 + -0.20398)/2.0
 sum -  nocc_ = 0.00385229
 On Iteration in Bisection 8
 a: 0.00385  b:-0.00407

 -0.21028 = (-0.21238 + -0.20818)/2.0
 sum -  nocc_ = -0.00010740
 On Iteration in Bisection 9
 a: -0.00011  b:-0.00407

 -0.20923 = (-0.21028 + -0.20818)/2.0
 sum -  nocc_ = 0.00187228
 On Iteration in Bisection 10
 a: 0.00187  b:-0.00011

 -0.20976 = (-0.21028 + -0.20923)/2.0
 sum -  nocc_ = 0.00088242
 On Iteration in Bisection 11
 a: 0.00088  b:-0.00011

 -0.21002 = (-0.21028 + -0.20976)/2.0
 sum -  nocc_ = 0.00038751
 On Iteration in Bisection 12
 a: 0.00039  b:-0.00011

 -0.21015 = (-0.21028 + -0.21002)/2.0
 sum -  nocc_ = 0.00014005
 On Iteration in Bisection 13
 a: 0.00014  b:-0.00011

 -0.21022 = (-0.21028 + -0.21015)/2.0
 sum -  nocc_ = 0.00001633
 On Iteration in Bisection 14
 a: 0.00002  b:-0.00011

 -0.21025 = (-0.21028 + -0.21022)/2.0
 sum -  nocc_ = -0.00004554
 On Iteration in Bisection 15
 a: -0.00005  b:-0.00011

 -0.21023 = (-0.21025 + -0.21022)/2.0
 sum -  nocc_ = -0.00001461
 On Iteration in Bisection 16
 a: -0.00001  b:-0.00005

 -0.21023 = (-0.21023 + -0.21022)/2.0
 sum -  nocc_ = 0.00000086
 On Iteration in Bisection 17
 a: 0.00000  b:-0.00001

 -0.21023 = (-0.21023 + -0.21023)/2.0
 sum -  nocc_ = -0.00000687
 On Iteration in Bisection 18
 a: -0.00001  b:-0.00001

 -0.21023 = (-0.21023 + -0.21023)/2.0
 sum -  nocc_ = -0.00000301
 On Iteration in Bisection 19
 a: -0.00000  b:-0.00001

 -0.21023 = (-0.21023 + -0.21023)/2.0
 sum -  nocc_ = -0.00000107
 On Iteration in Bisection 20
 a: -0.00000  b:-0.00000

 -0.21023 = (-0.21023 + -0.21023)/2.0
 sum -  nocc_ = -0.00000011
 On Iteration in Bisection 21
 a: -0.00000  b:-0.00000

 -0.21023 = (-0.21023 + -0.21023)/2.0
 sum -  nocc_ = 0.00000038
 On Iteration in Bisection 22
 a: 0.00000  b:-0.00000

 -0.21023 = (-0.21023 + -0.21023)/2.0
 sum -  nocc_ = 0.00000014
 On Iteration in Bisection 23
 a: 0.00000  b:-0.00000

 -0.21023 = (-0.21023 + -0.21023)/2.0
 sum -  nocc_ = 0.00000001
 On Iteration in Bisection 24
 a: 0.00000  b:-0.00000

 -0.21023 = (-0.21023 + -0.21023)/2.0
 sum -  nocc_ = -0.00000005
 On Iteration in Bisection 25
 a: -0.00000  b:-0.00000

 -0.21023 = (-0.21023 + -0.21023)/2.0
 sum -  nocc_ = -0.00000002
 On Iteration in Bisection 26
 a: -0.00000  b:-0.00000

 -0.21023 = (-0.21023 + -0.21023)/2.0
 sum -  nocc_ = -0.00000000
 ef = -0.21023 sum = 1.00000 

 Iter: 5  T:    20000.000  val:-0.210227  sumni 0.00000
 ne = 1.0000

 iter:6  failiter:6  energy:     -1.168723898761  total:     -0.890209578451  error:     -0.001862152263
 In Bisection function HOMO = -0.381  LUMO =  1.770

 0.69465 = (-0.38067 + 1.76997)/2.0
 sum -  nocc_ = 2.25038009
 On Iteration in Bisection 0
 a: 2.25038  b:-0.49543

 0.15699 = (-0.38067 + 0.69465)/2.0
 sum -  nocc_ = 0.95760948
 On Iteration in Bisection 1
 a: 0.95761  b:-0.49543

 -0.11184 = (-0.38067 + 0.15699)/2.0
 sum -  nocc_ = 0.22832294
 On Iteration in Bisection 2
 a: 0.22832  b:-0.49543

 -0.24626 = (-0.38067 + -0.11184)/2.0
 sum -  nocc_ = -0.07003022
 On Iteration in Bisection 3
 a: -0.07003  b:-0.49543

 -0.17905 = (-0.24626 + -0.11184)/2.0
 sum -  nocc_ = 0.05992150
 On Iteration in Bisection 4
 a: 0.05992  b:-0.07003

 -0.21265 = (-0.24626 + -0.17905)/2.0
 sum -  nocc_ = -0.00464005
 On Iteration in Bisection 5
 a: -0.00464  b:-0.07003

 -0.19585 = (-0.21265 + -0.17905)/2.0
 sum -  nocc_ = 0.02703681
 On Iteration in Bisection 6
 a: 0.02704  b:-0.00464

 -0.20425 = (-0.21265 + -0.19585)/2.0
 sum -  nocc_ = 0.01113549
 On Iteration in Bisection 7
 a: 0.01114  b:-0.00464

 -0.20845 = (-0.21265 + -0.20425)/2.0
 sum -  nocc_ = 0.00324313
 On Iteration in Bisection 8
 a: 0.00324  b:-0.00464

 -0.21055 = (-0.21265 + -0.20845)/2.0
 sum -  nocc_ = -0.00069821
 On Iteration in Bisection 9
 a: -0.00070  b:-0.00464

 -0.20950 = (-0.21055 + -0.20845)/2.0
 sum -  nocc_ = 0.00127235
 On Iteration in Bisection 10
 a: 0.00127  b:-0.00070

 -0.21003 = (-0.21055 + -0.20950)/2.0
 sum -  nocc_ = 0.00028706
 On Iteration in Bisection 11
 a: 0.00029  b:-0.00070

 -0.21029 = (-0.21055 + -0.21003)/2.0
 sum -  nocc_ = -0.00020557
 On Iteration in Bisection 12
 a: -0.00021  b:-0.00070

 -0.21016 = (-0.21029 + -0.21003)/2.0
 sum -  nocc_ = 0.00004075
 On Iteration in Bisection 13
 a: 0.00004  b:-0.00021

 -0.21023 = (-0.21029 + -0.21016)/2.0
 sum -  nocc_ = -0.00008241
 On Iteration in Bisection 14
 a: -0.00008  b:-0.00021

 -0.21019 = (-0.21023 + -0.21016)/2.0
 sum -  nocc_ = -0.00002083
 On Iteration in Bisection 15
 a: -0.00002  b:-0.00008

 -0.21018 = (-0.21019 + -0.21016)/2.0
 sum -  nocc_ = 0.00000996
 On Iteration in Bisection 16
 a: 0.00001  b:-0.00002

 -0.21018 = (-0.21019 + -0.21018)/2.0
 sum -  nocc_ = -0.00000544
 On Iteration in Bisection 17
 a: -0.00001  b:-0.00002

 -0.21018 = (-0.21018 + -0.21018)/2.0
 sum -  nocc_ = 0.00000226
 On Iteration in Bisection 18
 a: 0.00000  b:-0.00001

 -0.21018 = (-0.21018 + -0.21018)/2.0
 sum -  nocc_ = -0.00000159
 On Iteration in Bisection 19
 a: -0.00000  b:-0.00001

 -0.21018 = (-0.21018 + -0.21018)/2.0
 sum -  nocc_ = 0.00000033
 On Iteration in Bisection 20
 a: 0.00000  b:-0.00000

 -0.21018 = (-0.21018 + -0.21018)/2.0
 sum -  nocc_ = -0.00000063
 On Iteration in Bisection 21
 a: -0.00000  b:-0.00000

 -0.21018 = (-0.21018 + -0.21018)/2.0
 sum -  nocc_ = -0.00000015
 On Iteration in Bisection 22
 a: -0.00000  b:-0.00000

 -0.21018 = (-0.21018 + -0.21018)/2.0
 sum -  nocc_ = 0.00000009
 On Iteration in Bisection 23
 a: 0.00000  b:-0.00000

 -0.21018 = (-0.21018 + -0.21018)/2.0
 sum -  nocc_ = -0.00000003
 On Iteration in Bisection 24
 a: -0.00000  b:-0.00000

 -0.21018 = (-0.21018 + -0.21018)/2.0
 sum -  nocc_ = 0.00000003
 On Iteration in Bisection 25
 a: 0.00000  b:-0.00000

 -0.21018 = (-0.21018 + -0.21018)/2.0
 sum -  nocc_ = 0.00000000
 ef = -0.21018 sum = 1.00000 

 Iter: 6  T:    20000.000  val:-0.210181  sumni 0.00000
 ne = 1.0000

 iter:7  failiter:7  energy:     -1.169147486535  total:     -0.890633166225  error:     -0.000423587774
 In Bisection function HOMO = -0.381  LUMO =  1.770

 0.69463 = (-0.38074 + 1.77000)/2.0
 sum -  nocc_ = 2.25012078
 On Iteration in Bisection 0
 a: 2.25012  b:-0.49544

 0.15694 = (-0.38074 + 0.69463)/2.0
 sum -  nocc_ = 0.95752067
 On Iteration in Bisection 1
 a: 0.95752  b:-0.49544

 -0.11190 = (-0.38074 + 0.15694)/2.0
 sum -  nocc_ = 0.22789590
 On Iteration in Bisection 2
 a: 0.22790  b:-0.49544

 -0.24632 = (-0.38074 + -0.11190)/2.0
 sum -  nocc_ = -0.07010755
 On Iteration in Bisection 3
 a: -0.07011  b:-0.49544

 -0.17911 = (-0.24632 + -0.11190)/2.0
 sum -  nocc_ = 0.05971275
 On Iteration in Bisection 4
 a: 0.05971  b:-0.07011

 -0.21271 = (-0.24632 + -0.17911)/2.0
 sum -  nocc_ = -0.00477107
 On Iteration in Bisection 5
 a: -0.00477  b:-0.07011

 -0.19591 = (-0.21271 + -0.17911)/2.0
 sum -  nocc_ = 0.02687014
 On Iteration in Bisection 6
 a: 0.02687  b:-0.00477

 -0.20431 = (-0.21271 + -0.19591)/2.0
 sum -  nocc_ = 0.01098744
 On Iteration in Bisection 7
 a: 0.01099  b:-0.00477

 -0.20851 = (-0.21271 + -0.20431)/2.0
 sum -  nocc_ = 0.00310379
 On Iteration in Bisection 8
 a: 0.00310  b:-0.00477

 -0.21061 = (-0.21271 + -0.20851)/2.0
 sum -  nocc_ = -0.00083335
 On Iteration in Bisection 9
 a: -0.00083  b:-0.00477

 -0.20956 = (-0.21061 + -0.20851)/2.0
 sum -  nocc_ = 0.00113512
 On Iteration in Bisection 10
 a: 0.00114  b:-0.00083

 -0.21009 = (-0.21061 + -0.20956)/2.0
 sum -  nocc_ = 0.00015088
 On Iteration in Bisection 11
 a: 0.00015  b:-0.00083

 -0.21035 = (-0.21061 + -0.21009)/2.0
 sum -  nocc_ = -0.00034123
 On Iteration in Bisection 12
 a: -0.00034  b:-0.00083

 -0.21022 = (-0.21035 + -0.21009)/2.0
 sum -  nocc_ = -0.00009517
 On Iteration in Bisection 13
 a: -0.00010  b:-0.00034

 -0.21015 = (-0.21022 + -0.21009)/2.0
 sum -  nocc_ = 0.00002786
 On Iteration in Bisection 14
 a: 0.00003  b:-0.00010

 -0.21019 = (-0.21022 + -0.21015)/2.0
 sum -  nocc_ = -0.00003366
 On Iteration in Bisection 15
 a: -0.00003  b:-0.00010

 -0.21017 = (-0.21019 + -0.21015)/2.0
 sum -  nocc_ = -0.00000290
 On Iteration in Bisection 16
 a: -0.00000  b:-0.00003

 -0.21016 = (-0.21017 + -0.21015)/2.0
 sum -  nocc_ = 0.00001248
 On Iteration in Bisection 17
 a: 0.00001  b:-0.00000

 -0.21017 = (-0.21017 + -0.21016)/2.0
 sum -  nocc_ = 0.00000479
 On Iteration in Bisection 18
 a: 0.00000  b:-0.00000

 -0.21017 = (-0.21017 + -0.21017)/2.0
 sum -  nocc_ = 0.00000094
 On Iteration in Bisection 19
 a: 0.00000  b:-0.00000

 -0.21017 = (-0.21017 + -0.21017)/2.0
 sum -  nocc_ = -0.00000098
 On Iteration in Bisection 20
 a: -0.00000  b:-0.00000

 -0.21017 = (-0.21017 + -0.21017)/2.0
 sum -  nocc_ = -0.00000002
 On Iteration in Bisection 21
 a: -0.00000  b:-0.00000

 -0.21017 = (-0.21017 + -0.21017)/2.0
 sum -  nocc_ = 0.00000046
 On Iteration in Bisection 22
 a: 0.00000  b:-0.00000

 -0.21017 = (-0.21017 + -0.21017)/2.0
 sum -  nocc_ = 0.00000022
 On Iteration in Bisection 23
 a: 0.00000  b:-0.00000

 -0.21017 = (-0.21017 + -0.21017)/2.0
 sum -  nocc_ = 0.00000010
 On Iteration in Bisection 24
 a: 0.00000  b:-0.00000

 -0.21017 = (-0.21017 + -0.21017)/2.0
 sum -  nocc_ = 0.00000004
 On Iteration in Bisection 25
 a: 0.00000  b:-0.00000

 -0.21017 = (-0.21017 + -0.21017)/2.0
 sum -  nocc_ = 0.00000001
 On Iteration in Bisection 26
 a: 0.00000  b:-0.00000

 -0.21017 = (-0.21017 + -0.21017)/2.0
 sum -  nocc_ = -0.00000000
 ef = -0.21017 sum = 1.00000 

 Iter: 7  T:    20000.000  val:-0.210169  sumni 0.00000
 ne = 1.0000

 iter:8  failiter:8  energy:     -1.169243578744  total:     -0.890729258434  error:     -0.000096092209
 In Bisection function HOMO = -0.381  LUMO =  1.770

 0.69463 = (-0.38076 + 1.77001)/2.0
 sum -  nocc_ = 2.25006211
 On Iteration in Bisection 0
 a: 2.25006  b:-0.49545

 0.15694 = (-0.38076 + 0.69463)/2.0
 sum -  nocc_ = 0.95750025
 On Iteration in Bisection 1
 a: 0.95750  b:-0.49545

 -0.11191 = (-0.38076 + 0.15694)/2.0
 sum -  nocc_ = 0.22779779
 On Iteration in Bisection 2
 a: 0.22780  b:-0.49545

 -0.24633 = (-0.38076 + -0.11191)/2.0
 sum -  nocc_ = -0.07012528
 On Iteration in Bisection 3
 a: -0.07013  b:-0.49545

 -0.17912 = (-0.24633 + -0.11191)/2.0
 sum -  nocc_ = 0.05966481
 On Iteration in Bisection 4
 a: 0.05966  b:-0.07013

 -0.21273 = (-0.24633 + -0.17912)/2.0
 sum -  nocc_ = -0.00480114
 On Iteration in Bisection 5
 a: -0.00480  b:-0.07013

 -0.19592 = (-0.21273 + -0.17912)/2.0
 sum -  nocc_ = 0.02683188
 On Iteration in Bisection 6
 a: 0.02683  b:-0.00480

 -0.20433 = (-0.21273 + -0.19592)/2.0
 sum -  nocc_ = 0.01095345
 On Iteration in Bisection 7
 a: 0.01095  b:-0.00480

 -0.20853 = (-0.21273 + -0.20433)/2.0
 sum -  nocc_ = 0.00307180
 On Iteration in Bisection 8
 a: 0.00307  b:-0.00480

 -0.21063 = (-0.21273 + -0.20853)/2.0
 sum -  nocc_ = -0.00086436
 On Iteration in Bisection 9
 a: -0.00086  b:-0.00480

 -0.20958 = (-0.21063 + -0.20853)/2.0
 sum -  nocc_ = 0.00110362
 On Iteration in Bisection 10
 a: 0.00110  b:-0.00086

 -0.21010 = (-0.21063 + -0.20958)/2.0
 sum -  nocc_ = 0.00011963
 On Iteration in Bisection 11
 a: 0.00012  b:-0.00086

 -0.21036 = (-0.21063 + -0.21010)/2.0
 sum -  nocc_ = -0.00037237
 On Iteration in Bisection 12
 a: -0.00037  b:-0.00086

 -0.21023 = (-0.21036 + -0.21010)/2.0
 sum -  nocc_ = -0.00012637
 On Iteration in Bisection 13
 a: -0.00013  b:-0.00037

 -0.21017 = (-0.21023 + -0.21010)/2.0
 sum -  nocc_ = -0.00000337
 On Iteration in Bisection 14
 a: -0.00000  b:-0.00013

 -0.21013 = (-0.21017 + -0.21010)/2.0
 sum -  nocc_ = 0.00005813
 On Iteration in Bisection 15
 a: 0.00006  b:-0.00000

 -0.21015 = (-0.21017 + -0.21013)/2.0
 sum -  nocc_ = 0.00002738
 On Iteration in Bisection 16
 a: 0.00003  b:-0.00000

 -0.21016 = (-0.21017 + -0.21015)/2.0
 sum -  nocc_ = 0.00001200
 On Iteration in Bisection 17
 a: 0.00001  b:-0.00000

 -0.21016 = (-0.21017 + -0.21016)/2.0
 sum -  nocc_ = 0.00000432
 On Iteration in Bisection 18
 a: 0.00000  b:-0.00000

 -0.21017 = (-0.21017 + -0.21016)/2.0
 sum -  nocc_ = 0.00000047
 On Iteration in Bisection 19
 a: 0.00000  b:-0.00000

 -0.21017 = (-0.21017 + -0.21017)/2.0
 sum -  nocc_ = -0.00000145
 On Iteration in Bisection 20
 a: -0.00000  b:-0.00000

 -0.21017 = (-0.21017 + -0.21017)/2.0
 sum -  nocc_ = -0.00000049
 On Iteration in Bisection 21
 a: -0.00000  b:-0.00000

 -0.21017 = (-0.21017 + -0.21017)/2.0
 sum -  nocc_ = -0.00000001
 ef = -0.21017 sum = 1.00000 

 Iter: 8  T:    20000.000  val:-0.210166  sumni 0.00000
 ne = 1.0000

 iter:9  failiter:9  energy:     -1.169265436275  total:     -0.890751115965  error:     -0.000021857531
 In Bisection function HOMO = -0.381  LUMO =  1.770

 0.69463 = (-0.38076 + 1.77001)/2.0
 sum -  nocc_ = 2.25004878
 On Iteration in Bisection 0
 a: 2.25005  b:-0.49545

 0.15693 = (-0.38076 + 0.69463)/2.0
 sum -  nocc_ = 0.95749556
 On Iteration in Bisection 1
 a: 0.95750  b:-0.49545

 -0.11191 = (-0.38076 + 0.15693)/2.0
 sum -  nocc_ = 0.22777522
 On Iteration in Bisection 2
 a: 0.22778  b:-0.49545

 -0.24634 = (-0.38076 + -0.11191)/2.0
 sum -  nocc_ = -0.07012935
 On Iteration in Bisection 3
 a: -0.07013  b:-0.49545

 -0.17912 = (-0.24634 + -0.11191)/2.0
 sum -  nocc_ = 0.05965378
 On Iteration in Bisection 4
 a: 0.05965  b:-0.07013

 -0.21273 = (-0.24634 + -0.17912)/2.0
 sum -  nocc_ = -0.00480806
 On Iteration in Bisection 5
 a: -0.00481  b:-0.07013

 -0.19593 = (-0.21273 + -0.17912)/2.0
 sum -  nocc_ = 0.02682308
 On Iteration in Bisection 6
 a: 0.02682  b:-0.00481

 -0.20433 = (-0.21273 + -0.19593)/2.0
 sum -  nocc_ = 0.01094564
 On Iteration in Bisection 7
 a: 0.01095  b:-0.00481

 -0.20853 = (-0.21273 + -0.20433)/2.0
 sum -  nocc_ = 0.00306445
 On Iteration in Bisection 8
 a: 0.00306  b:-0.00481

 -0.21063 = (-0.21273 + -0.20853)/2.0
 sum -  nocc_ = -0.00087150
 On Iteration in Bisection 9
 a: -0.00087  b:-0.00481

 -0.20958 = (-0.21063 + -0.20853)/2.0
 sum -  nocc_ = 0.00109638
 On Iteration in Bisection 10
 a: 0.00110  b:-0.00087

 -0.21011 = (-0.21063 + -0.20958)/2.0
 sum -  nocc_ = 0.00011244
 On Iteration in Bisection 11
 a: 0.00011  b:-0.00087

 -0.21037 = (-0.21063 + -0.21011)/2.0
 sum -  nocc_ = -0.00037953
 On Iteration in Bisection 12
 a: -0.00038  b:-0.00087

 -0.21024 = (-0.21037 + -0.21011)/2.0
 sum -  nocc_ = -0.00013354
 On Iteration in Bisection 13
 a: -0.00013  b:-0.00038

 -0.21017 = (-0.21024 + -0.21011)/2.0
 sum -  nocc_ = -0.00001055
 On Iteration in Bisection 14
 a: -0.00001  b:-0.00013

 -0.21014 = (-0.21017 + -0.21011)/2.0
 sum -  nocc_ = 0.00005094
 On Iteration in Bisection 15
 a: 0.00005  b:-0.00001

 -0.21015 = (-0.21017 + -0.21014)/2.0
 sum -  nocc_ = 0.00002020
 On Iteration in Bisection 16
 a: 0.00002  b:-0.00001

 -0.21016 = (-0.21017 + -0.21015)/2.0
 sum -  nocc_ = 0.00000482
 On Iteration in Bisection 17
 a: 0.00000  b:-0.00001

 -0.21017 = (-0.21017 + -0.21016)/2.0
 sum -  nocc_ = -0.00000287
 On Iteration in Bisection 18
 a: -0.00000  b:-0.00001

 -0.21016 = (-0.21017 + -0.21016)/2.0
 sum -  nocc_ = 0.00000098
 On Iteration in Bisection 19
 a: 0.00000  b:-0.00000

 -0.21017 = (-0.21017 + -0.21016)/2.0
 sum -  nocc_ = -0.00000094
 On Iteration in Bisection 20
 a: -0.00000  b:-0.00000

 -0.21017 = (-0.21017 + -0.21016)/2.0
 sum -  nocc_ = 0.00000002
 On Iteration in Bisection 21
 a: 0.00000  b:-0.00000

 -0.21017 = (-0.21017 + -0.21017)/2.0
 sum -  nocc_ = -0.00000046
 On Iteration in Bisection 22
 a: -0.00000  b:-0.00000

 -0.21017 = (-0.21017 + -0.21017)/2.0
 sum -  nocc_ = -0.00000022
 On Iteration in Bisection 23
 a: -0.00000  b:-0.00000

 -0.21017 = (-0.21017 + -0.21017)/2.0
 sum -  nocc_ = -0.00000010
 On Iteration in Bisection 24
 a: -0.00000  b:-0.00000

 -0.21017 = (-0.21017 + -0.21017)/2.0
 sum -  nocc_ = -0.00000004
 On Iteration in Bisection 25
 a: -0.00000  b:-0.00000

 -0.21017 = (-0.21017 + -0.21017)/2.0
 sum -  nocc_ = -0.00000001
 On Iteration in Bisection 26
 a: -0.00000  b:-0.00000

 -0.21017 = (-0.21017 + -0.21017)/2.0
 sum -  nocc_ = 0.00000000
 ef = -0.21017 sum = 1.00000 

 Iter: 9  T:    20000.000  val:-0.210165  sumni 0.00000
 ne = 1.0000

 iter:10  failiter:10  energy:     -1.169270439876  total:     -0.890756119566  error:     -0.000005003601
 In Bisection function HOMO = -0.381  LUMO =  1.770

 0.69463 = (-0.38076 + 1.77001)/2.0
 sum -  nocc_ = 2.25004574
 On Iteration in Bisection 0
 a: 2.25005  b:-0.49545

 0.15693 = (-0.38076 + 0.69463)/2.0
 sum -  nocc_ = 0.95749448
 On Iteration in Bisection 1
 a: 0.95749  b:-0.49545

 -0.11191 = (-0.38076 + 0.15693)/2.0
 sum -  nocc_ = 0.22777003
 On Iteration in Bisection 2
 a: 0.22777  b:-0.49545

 -0.24634 = (-0.38076 + -0.11191)/2.0
 sum -  nocc_ = -0.07013029
 On Iteration in Bisection 3
 a: -0.07013  b:-0.49545

 -0.17913 = (-0.24634 + -0.11191)/2.0
 sum -  nocc_ = 0.05965125
 On Iteration in Bisection 4
 a: 0.05965  b:-0.07013

 -0.21273 = (-0.24634 + -0.17913)/2.0
 sum -  nocc_ = -0.00480965
 On Iteration in Bisection 5
 a: -0.00481  b:-0.07013

 -0.19593 = (-0.21273 + -0.17913)/2.0
 sum -  nocc_ = 0.02682105
 On Iteration in Bisection 6
 a: 0.02682  b:-0.00481

 -0.20433 = (-0.21273 + -0.19593)/2.0
 sum -  nocc_ = 0.01094384
 On Iteration in Bisection 7
 a: 0.01094  b:-0.00481

 -0.20853 = (-0.21273 + -0.20433)/2.0
 sum -  nocc_ = 0.00306276
 On Iteration in Bisection 8
 a: 0.00306  b:-0.00481

 -0.21063 = (-0.21273 + -0.20853)/2.0
 sum -  nocc_ = -0.00087314
 On Iteration in Bisection 9
 a: -0.00087  b:-0.00481

 -0.20958 = (-0.21063 + -0.20853)/2.0
 sum -  nocc_ = 0.00109471
 On Iteration in Bisection 10
 a: 0.00109  b:-0.00087

 -0.21011 = (-0.21063 + -0.20958)/2.0
 sum -  nocc_ = 0.00011079
 On Iteration in Bisection 11
 a: 0.00011  b:-0.00087

 -0.21037 = (-0.21063 + -0.21011)/2.0
 sum -  nocc_ = -0.00038117
 On Iteration in Bisection 12
 a: -0.00038  b:-0.00087

 -0.21024 = (-0.21037 + -0.21011)/2.0
 sum -  nocc_ = -0.00013519
 On Iteration in Bisection 13
 a: -0.00014  b:-0.00038

 -0.21017 = (-0.21024 + -0.21011)/2.0
 sum -  nocc_ = -0.00001220
 On Iteration in Bisection 14
 a: -0.00001  b:-0.00014

 -0.21014 = (-0.21017 + -0.21011)/2.0
 sum -  nocc_ = 0.00004929
 On Iteration in Bisection 15
 a: 0.00005  b:-0.00001

 -0.21015 = (-0.21017 + -0.21014)/2.0
 sum -  nocc_ = 0.00001854
 On Iteration in Bisection 16
 a: 0.00002  b:-0.00001

 -0.21016 = (-0.21017 + -0.21015)/2.0
 sum -  nocc_ = 0.00000317
 On Iteration in Bisection 17
 a: 0.00000  b:-0.00001

 -0.21017 = (-0.21017 + -0.21016)/2.0
 sum -  nocc_ = -0.00000452
 On Iteration in Bisection 18
 a: -0.00000  b:-0.00001

 -0.21017 = (-0.21017 + -0.21016)/2.0
 sum -  nocc_ = -0.00000067
 On Iteration in Bisection 19
 a: -0.00000  b:-0.00000

 -0.21016 = (-0.21017 + -0.21016)/2.0
 sum -  nocc_ = 0.00000125
 On Iteration in Bisection 20
 a: 0.00000  b:-0.00000

 -0.21016 = (-0.21017 + -0.21016)/2.0
 sum -  nocc_ = 0.00000029
 On Iteration in Bisection 21
 a: 0.00000  b:-0.00000

 -0.21016 = (-0.21017 + -0.21016)/2.0
 sum -  nocc_ = -0.00000019
 On Iteration in Bisection 22
 a: -0.00000  b:-0.00000

 -0.21016 = (-0.21016 + -0.21016)/2.0
 sum -  nocc_ = 0.00000005
 On Iteration in Bisection 23
 a: 0.00000  b:-0.00000

 -0.21016 = (-0.21016 + -0.21016)/2.0
 sum -  nocc_ = -0.00000007
 On Iteration in Bisection 24
 a: -0.00000  b:-0.00000

 -0.21016 = (-0.21016 + -0.21016)/2.0
 sum -  nocc_ = -0.00000001
 On Iteration in Bisection 25
 a: -0.00000  b:-0.00000

 -0.21016 = (-0.21016 + -0.21016)/2.0
 sum -  nocc_ = 0.00000002
 On Iteration in Bisection 26
 a: 0.00000  b:-0.00000

 -0.21016 = (-0.21016 + -0.21016)/2.0
 sum -  nocc_ = 0.00000000
 ef = -0.21016 sum = 1.00000 

 Iter: 10  T:    20000.000  val:-0.210165  sumni 0.00000
 ne = 1.0000

 iter:11  failiter:11  energy:     -1.169271574945  total:     -0.890757254635  error:     -0.000001135069
 In Bisection function HOMO = -0.381  LUMO =  1.770

 0.69463 = (-0.38076 + 1.77001)/2.0
 sum -  nocc_ = 2.25004504
 On Iteration in Bisection 0
 a: 2.25005  b:-0.49545

 0.15693 = (-0.38076 + 0.69463)/2.0
 sum -  nocc_ = 0.95749423
 On Iteration in Bisection 1
 a: 0.95749  b:-0.49545

 -0.11191 = (-0.38076 + 0.15693)/2.0
 sum -  nocc_ = 0.22776883
 On Iteration in Bisection 2
 a: 0.22777  b:-0.49545

 -0.24634 = (-0.38076 + -0.11191)/2.0
 sum -  nocc_ = -0.07013050
 On Iteration in Bisection 3
 a: -0.07013  b:-0.49545

 -0.17913 = (-0.24634 + -0.11191)/2.0
 sum -  nocc_ = 0.05965066
 On Iteration in Bisection 4
 a: 0.05965  b:-0.07013

 -0.21273 = (-0.24634 + -0.17913)/2.0
 sum -  nocc_ = -0.00481001
 On Iteration in Bisection 5
 a: -0.00481  b:-0.07013

 -0.19593 = (-0.21273 + -0.17913)/2.0
 sum -  nocc_ = 0.02682059
 On Iteration in Bisection 6
 a: 0.02682  b:-0.00481

 -0.20433 = (-0.21273 + -0.19593)/2.0
 sum -  nocc_ = 0.01094343
 On Iteration in Bisection 7
 a: 0.01094  b:-0.00481

 -0.20853 = (-0.21273 + -0.20433)/2.0
 sum -  nocc_ = 0.00306237
 On Iteration in Bisection 8
 a: 0.00306  b:-0.00481

 -0.21063 = (-0.21273 + -0.20853)/2.0
 sum -  nocc_ = -0.00087351
 On Iteration in Bisection 9
 a: -0.00087  b:-0.00481

 -0.20958 = (-0.21063 + -0.20853)/2.0
 sum -  nocc_ = 0.00109433
 On Iteration in Bisection 10
 a: 0.00109  b:-0.00087

 -0.21011 = (-0.21063 + -0.20958)/2.0
 sum -  nocc_ = 0.00011040
 On Iteration in Bisection 11
 a: 0.00011  b:-0.00087

 -0.21037 = (-0.21063 + -0.21011)/2.0
 sum -  nocc_ = -0.00038155
 On Iteration in Bisection 12
 a: -0.00038  b:-0.00087

 -0.21024 = (-0.21037 + -0.21011)/2.0
 sum -  nocc_ = -0.00013557
 On Iteration in Bisection 13
 a: -0.00014  b:-0.00038

 -0.21017 = (-0.21024 + -0.21011)/2.0
 sum -  nocc_ = -0.00001258
 On Iteration in Bisection 14
 a: -0.00001  b:-0.00014

 -0.21014 = (-0.21017 + -0.21011)/2.0
 sum -  nocc_ = 0.00004891
 On Iteration in Bisection 15
 a: 0.00005  b:-0.00001

 -0.21016 = (-0.21017 + -0.21014)/2.0
 sum -  nocc_ = 0.00001816
 On Iteration in Bisection 16
 a: 0.00002  b:-0.00001

 -0.21016 = (-0.21017 + -0.21016)/2.0
 sum -  nocc_ = 0.00000279
 On Iteration in Bisection 17
 a: 0.00000  b:-0.00001

 -0.21017 = (-0.21017 + -0.21016)/2.0
 sum -  nocc_ = -0.00000490
 On Iteration in Bisection 18
 a: -0.00000  b:-0.00001

 -0.21017 = (-0.21017 + -0.21016)/2.0
 sum -  nocc_ = -0.00000105
 On Iteration in Bisection 19
 a: -0.00000  b:-0.00000

 -0.21016 = (-0.21017 + -0.21016)/2.0
 sum -  nocc_ = 0.00000087
 On Iteration in Bisection 20
 a: 0.00000  b:-0.00000

 -0.21016 = (-0.21017 + -0.21016)/2.0
 sum -  nocc_ = -0.00000009
 On Iteration in Bisection 21
 a: -0.00000  b:-0.00000

 -0.21016 = (-0.21016 + -0.21016)/2.0
 sum -  nocc_ = 0.00000039
 On Iteration in Bisection 22
 a: 0.00000  b:-0.00000

 -0.21016 = (-0.21016 + -0.21016)/2.0
 sum -  nocc_ = 0.00000015
 On Iteration in Bisection 23
 a: 0.00000  b:-0.00000

 -0.21016 = (-0.21016 + -0.21016)/2.0
 sum -  nocc_ = 0.00000003
 On Iteration in Bisection 24
 a: 0.00000  b:-0.00000

 -0.21016 = (-0.21016 + -0.21016)/2.0
 sum -  nocc_ = -0.00000003
 On Iteration in Bisection 25
 a: -0.00000  b:-0.00000

 -0.21016 = (-0.21016 + -0.21016)/2.0
 sum -  nocc_ = -0.00000000
 ef = -0.21016 sum = 1.00000 

 Iter: 11  T:    20000.000  val:-0.210165  sumni 0.00000
 ne = 1.0000

 iter:12  failiter:12  energy:     -1.169271832082  total:     -0.890757511771  error:     -0.000000257136
 In Bisection function HOMO = -0.381  LUMO =  1.770

 0.69463 = (-0.38076 + 1.77001)/2.0
 sum -  nocc_ = 2.25004488
 On Iteration in Bisection 0
 a: 2.25004  b:-0.49545

 0.15693 = (-0.38076 + 0.69463)/2.0
 sum -  nocc_ = 0.95749418
 On Iteration in Bisection 1
 a: 0.95749  b:-0.49545

 -0.11191 = (-0.38076 + 0.15693)/2.0
 sum -  nocc_ = 0.22776856
 On Iteration in Bisection 2
 a: 0.22777  b:-0.49545

 -0.24634 = (-0.38076 + -0.11191)/2.0
 sum -  nocc_ = -0.07013055
 On Iteration in Bisection 3
 a: -0.07013  b:-0.49545

 -0.17913 = (-0.24634 + -0.11191)/2.0
 sum -  nocc_ = 0.05965053
 On Iteration in Bisection 4
 a: 0.05965  b:-0.07013

 -0.21273 = (-0.24634 + -0.17913)/2.0
 sum -  nocc_ = -0.00481010
 On Iteration in Bisection 5
 a: -0.00481  b:-0.07013

 -0.19593 = (-0.21273 + -0.17913)/2.0
 sum -  nocc_ = 0.02682048
 On Iteration in Bisection 6
 a: 0.02682  b:-0.00481

 -0.20433 = (-0.21273 + -0.19593)/2.0
 sum -  nocc_ = 0.01094333
 On Iteration in Bisection 7
 a: 0.01094  b:-0.00481

 -0.20853 = (-0.21273 + -0.20433)/2.0
 sum -  nocc_ = 0.00306228
 On Iteration in Bisection 8
 a: 0.00306  b:-0.00481

 -0.21063 = (-0.21273 + -0.20853)/2.0
 sum -  nocc_ = -0.00087360
 On Iteration in Bisection 9
 a: -0.00087  b:-0.00481

 -0.20958 = (-0.21063 + -0.20853)/2.0
 sum -  nocc_ = 0.00109424
 On Iteration in Bisection 10
 a: 0.00109  b:-0.00087

 -0.21011 = (-0.21063 + -0.20958)/2.0
 sum -  nocc_ = 0.00011032
 On Iteration in Bisection 11
 a: 0.00011  b:-0.00087

 -0.21037 = (-0.21063 + -0.21011)/2.0
 sum -  nocc_ = -0.00038164
 On Iteration in Bisection 12
 a: -0.00038  b:-0.00087

 -0.21024 = (-0.21037 + -0.21011)/2.0
 sum -  nocc_ = -0.00013566
 On Iteration in Bisection 13
 a: -0.00014  b:-0.00038

 -0.21017 = (-0.21024 + -0.21011)/2.0
 sum -  nocc_ = -0.00001267
 On Iteration in Bisection 14
 a: -0.00001  b:-0.00014

 -0.21014 = (-0.21017 + -0.21011)/2.0
 sum -  nocc_ = 0.00004882
 On Iteration in Bisection 15
 a: 0.00005  b:-0.00001

 -0.21016 = (-0.21017 + -0.21014)/2.0
 sum -  nocc_ = 0.00001807
 On Iteration in Bisection 16
 a: 0.00002  b:-0.00001

 -0.21016 = (-0.21017 + -0.21016)/2.0
 sum -  nocc_ = 0.00000270
 On Iteration in Bisection 17
 a: 0.00000  b:-0.00001

 -0.21017 = (-0.21017 + -0.21016)/2.0
 sum -  nocc_ = -0.00000499
 On Iteration in Bisection 18
 a: -0.00000  b:-0.00001

 -0.21017 = (-0.21017 + -0.21016)/2.0
 sum -  nocc_ = -0.00000114
 On Iteration in Bisection 19
 a: -0.00000  b:-0.00000

 -0.21016 = (-0.21017 + -0.21016)/2.0
 sum -  nocc_ = 0.00000078
 On Iteration in Bisection 20
 a: 0.00000  b:-0.00000

 -0.21016 = (-0.21017 + -0.21016)/2.0
 sum -  nocc_ = -0.00000018
 On Iteration in Bisection 21
 a: -0.00000  b:-0.00000

 -0.21016 = (-0.21016 + -0.21016)/2.0
 sum -  nocc_ = 0.00000030
 On Iteration in Bisection 22
 a: 0.00000  b:-0.00000

 -0.21016 = (-0.21016 + -0.21016)/2.0
 sum -  nocc_ = 0.00000006
 On Iteration in Bisection 23
 a: 0.00000  b:-0.00000

 -0.21016 = (-0.21016 + -0.21016)/2.0
 sum -  nocc_ = -0.00000006
 On Iteration in Bisection 24
 a: -0.00000  b:-0.00000

 -0.21016 = (-0.21016 + -0.21016)/2.0
 sum -  nocc_ = -0.00000000
 ef = -0.21016 sum = 1.00000 

 Iter: 12  T:    20000.000  val:-0.210165  sumni 0.00000
 ne = 1.0000

 iter:13  failiter:13  energy:     -1.169271897126  total:     -0.890757576815  error:     -0.000000065044
 In Bisection function HOMO = -0.381  LUMO =  1.770

 0.69463 = (-0.38076 + 1.77001)/2.0
 sum -  nocc_ = 2.25004485
 On Iteration in Bisection 0
 a: 2.25004  b:-0.49545

 0.15693 = (-0.38076 + 0.69463)/2.0
 sum -  nocc_ = 0.95749416
 On Iteration in Bisection 1
 a: 0.95749  b:-0.49545

 -0.11191 = (-0.38076 + 0.15693)/2.0
 sum -  nocc_ = 0.22776849
 On Iteration in Bisection 2
 a: 0.22777  b:-0.49545

[...]
 On Iteration in Bisection 10
 a: 0.00109  b:-0.00087

 -0.21011 = (-0.21063 + -0.20958)/2.0
 sum -  nocc_ = 0.00011029
 On Iteration in Bisection 11
 a: 0.00011  b:-0.00087

 -0.21037 = (-0.21063 + -0.21011)/2.0
 sum -  nocc_ = -0.00038167
 On Iteration in Bisection 12
 a: -0.00038  b:-0.00087

 -0.21024 = (-0.21037 + -0.21011)/2.0
 sum -  nocc_ = -0.00013569
 On Iteration in Bisection 13
 a: -0.00014  b:-0.00038

 -0.21017 = (-0.21024 + -0.21011)/2.0
 sum -  nocc_ = -0.00001270
 On Iteration in Bisection 14
 a: -0.00001  b:-0.00014

 -0.21014 = (-0.21017 + -0.21011)/2.0
 sum -  nocc_ = 0.00004880
 On Iteration in Bisection 15
 a: 0.00005  b:-0.00001

 -0.21016 = (-0.21017 + -0.21014)/2.0
 sum -  nocc_ = 0.00001805
 On Iteration in Bisection 16
 a: 0.00002  b:-0.00001

 -0.21016 = (-0.21017 + -0.21016)/2.0
 sum -  nocc_ = 0.00000268
 On Iteration in Bisection 17
 a: 0.00000  b:-0.00001

 -0.21017 = (-0.21017 + -0.21016)/2.0
 sum -  nocc_ = -0.00000501
 On Iteration in Bisection 18
 a: -0.00001  b:-0.00001

 -0.21017 = (-0.21017 + -0.21016)/2.0
 sum -  nocc_ = -0.00000117
 On Iteration in Bisection 19
 a: -0.00000  b:-0.00001

 -0.21016 = (-0.21017 + -0.21016)/2.0
 sum -  nocc_ = 0.00000075
 On Iteration in Bisection 20
 a: 0.00000  b:-0.00000

 -0.21016 = (-0.21017 + -0.21016)/2.0
 sum -  nocc_ = -0.00000021
 On Iteration in Bisection 21
 a: -0.00000  b:-0.00000

 -0.21016 = (-0.21016 + -0.21016)/2.0
 sum -  nocc_ = 0.00000027
 On Iteration in Bisection 22
 a: 0.00000  b:-0.00000

 -0.21016 = (-0.21016 + -0.21016)/2.0
 sum -  nocc_ = 0.00000003
 On Iteration in Bisection 23
 a: 0.00000  b:-0.00000

 -0.21016 = (-0.21016 + -0.21016)/2.0
 sum -  nocc_ = -0.00000009
 On Iteration in Bisection 24
 a: -0.00000  b:-0.00000

 -0.21016 = (-0.21016 + -0.21016)/2.0
 sum -  nocc_ = -0.00000003
 On Iteration in Bisection 25
 a: -0.00000  b:-0.00000

 -0.21016 = (-0.21016 + -0.21016)/2.0
 sum -  nocc_ = 0.00000000
 ef = -0.21016 sum = 1.00000 

 Iter: 16  T:    20000.000  val:-0.210165  sumni 0.00000
 ne = 1.0000

 iter:17  failiter:17  energy:     -1.169271915427  total:     -0.890757595116  error:     -0.000000000539
 In Bisection function HOMO = -0.381  LUMO =  1.770

 0.69463 = (-0.38076 + 1.77001)/2.0
 sum -  nocc_ = 2.25004483
 On Iteration in Bisection 0
 a: 2.25004  b:-0.49545

 0.15693 = (-0.38076 + 0.69463)/2.0
 sum -  nocc_ = 0.95749416
 On Iteration in Bisection 1
 a: 0.95749  b:-0.49545

 -0.11191 = (-0.38076 + 0.15693)/2.0
 sum -  nocc_ = 0.22776847
 On Iteration in Bisection 2
 a: 0.22777  b:-0.49545

 -0.24634 = (-0.38076 + -0.11191)/2.0
 sum -  nocc_ = -0.07013057
 On Iteration in Bisection 3
 a: -0.07013  b:-0.49545

 -0.17913 = (-0.24634 + -0.11191)/2.0
 sum -  nocc_ = 0.05965049
 On Iteration in Bisection 4
 a: 0.05965  b:-0.07013

 -0.21273 = (-0.24634 + -0.17913)/2.0
 sum -  nocc_ = -0.00481012
 On Iteration in Bisection 5
 a: -0.00481  b:-0.07013

 -0.19593 = (-0.21273 + -0.17913)/2.0
 sum -  nocc_ = 0.02682045
 On Iteration in Bisection 6
 a: 0.02682  b:-0.00481

 -0.20433 = (-0.21273 + -0.19593)/2.0
 sum -  nocc_ = 0.01094330
 On Iteration in Bisection 7
 a: 0.01094  b:-0.00481

 -0.20853 = (-0.21273 + -0.20433)/2.0
 sum -  nocc_ = 0.00306225
 On Iteration in Bisection 8
 a: 0.00306  b:-0.00481

 -0.21063 = (-0.21273 + -0.20853)/2.0
 sum -  nocc_ = -0.00087363
 On Iteration in Bisection 9
 a: -0.00087  b:-0.00481

 -0.20958 = (-0.21063 + -0.20853)/2.0
 sum -  nocc_ = 0.00109421
 On Iteration in Bisection 10
 a: 0.00109  b:-0.00087

 -0.21011 = (-0.21063 + -0.20958)/2.0
 sum -  nocc_ = 0.00011029
 On Iteration in Bisection 11
 a: 0.00011  b:-0.00087

 -0.21037 = (-0.21063 + -0.21011)/2.0
 sum -  nocc_ = -0.00038167
 On Iteration in Bisection 12
 a: -0.00038  b:-0.00087

 -0.21024 = (-0.21037 + -0.21011)/2.0
 sum -  nocc_ = -0.00013569
 On Iteration in Bisection 13
 a: -0.00014  b:-0.00038

 -0.21017 = (-0.21024 + -0.21011)/2.0
 sum -  nocc_ = -0.00001270
 On Iteration in Bisection 14
 a: -0.00001  b:-0.00014

 -0.21014 = (-0.21017 + -0.21011)/2.0
 sum -  nocc_ = 0.00004880
 On Iteration in Bisection 15
 a: 0.00005  b:-0.00001

 -0.21016 = (-0.21017 + -0.21014)/2.0
 sum -  nocc_ = 0.00001805
 On Iteration in Bisection 16
 a: 0.00002  b:-0.00001

 -0.21016 = (-0.21017 + -0.21016)/2.0
 sum -  nocc_ = 0.00000268
 On Iteration in Bisection 17
 a: 0.00000  b:-0.00001

 -0.21017 = (-0.21017 + -0.21016)/2.0
 sum -  nocc_ = -0.00000501
 On Iteration in Bisection 18
 a: -0.00001  b:-0.00001

 -0.21017 = (-0.21017 + -0.21016)/2.0
 sum -  nocc_ = -0.00000117
 On Iteration in Bisection 19
 a: -0.00000  b:-0.00001

 -0.21016 = (-0.21017 + -0.21016)/2.0
 sum -  nocc_ = 0.00000075
 On Iteration in Bisection 20
 a: 0.00000  b:-0.00000

 -0.21016 = (-0.21017 + -0.21016)/2.0
 sum -  nocc_ = -0.00000021
 On Iteration in Bisection 21
 a: -0.00000  b:-0.00000

 -0.21016 = (-0.21016 + -0.21016)/2.0
 sum -  nocc_ = 0.00000027
 On Iteration in Bisection 22
 a: 0.00000  b:-0.00000

 -0.21016 = (-0.21016 + -0.21016)/2.0
 sum -  nocc_ = 0.00000003
 On Iteration in Bisection 23
 a: 0.00000  b:-0.00000

 -0.21016 = (-0.21016 + -0.21016)/2.0
 sum -  nocc_ = -0.00000009
 On Iteration in Bisection 24
 a: -0.00000  b:-0.00000

 -0.21016 = (-0.21016 + -0.21016)/2.0
 sum -  nocc_ = -0.00000003
 On Iteration in Bisection 25
 a: -0.00000  b:-0.00000

 -0.21016 = (-0.21016 + -0.21016)/2.0
 sum -  nocc_ = 0.00000000
 ef = -0.21016 sum = 1.00000 

 Iter: 17  T:    20000.000  val:-0.210165  sumni 0.00000
 ne = 1.0000

 iter:18  failiter:18  energy:     -1.169271915548  total:     -0.890757595238  error:     -0.000000000122
 In Bisection function HOMO = -0.381  LUMO =  1.770

 0.69463 = (-0.38076 + 1.77001)/2.0
 sum -  nocc_ = 2.25004483
 On Iteration in Bisection 0
 a: 2.25004  b:-0.49545

 0.15693 = (-0.38076 + 0.69463)/2.0
 sum -  nocc_ = 0.95749416
 On Iteration in Bisection 1
 a: 0.95749  b:-0.49545

 -0.11191 = (-0.38076 + 0.15693)/2.0
 sum -  nocc_ = 0.22776847
 On Iteration in Bisection 2
 a: 0.22777  b:-0.49545

 -0.24634 = (-0.38076 + -0.11191)/2.0
 sum -  nocc_ = -0.07013057
 On Iteration in Bisection 3
 a: -0.07013  b:-0.49545

 -0.17913 = (-0.24634 + -0.11191)/2.0
 sum -  nocc_ = 0.05965049
 On Iteration in Bisection 4
 a: 0.05965  b:-0.07013

 -0.21273 = (-0.24634 + -0.17913)/2.0
 sum -  nocc_ = -0.00481012
 On Iteration in Bisection 5
 a: -0.00481  b:-0.07013

 -0.19593 = (-0.21273 + -0.17913)/2.0
 sum -  nocc_ = 0.02682045
 On Iteration in Bisection 6
 a: 0.02682  b:-0.00481

 -0.20433 = (-0.21273 + -0.19593)/2.0
 sum -  nocc_ = 0.01094330
 On Iteration in Bisection 7
 a: 0.01094  b:-0.00481

 -0.20853 = (-0.21273 + -0.20433)/2.0
 sum -  nocc_ = 0.00306225
 On Iteration in Bisection 8
 a: 0.00306  b:-0.00481

 -0.21063 = (-0.21273 + -0.20853)/2.0
 sum -  nocc_ = -0.00087363
 On Iteration in Bisection 9
 a: -0.00087  b:-0.00481

 -0.20958 = (-0.21063 + -0.20853)/2.0
 sum -  nocc_ = 0.00109421
 On Iteration in Bisection 10
 a: 0.00109  b:-0.00087

 -0.21011 = (-0.21063 + -0.20958)/2.0
 sum -  nocc_ = 0.00011029
 On Iteration in Bisection 11
 a: 0.00011  b:-0.00087

 -0.21037 = (-0.21063 + -0.21011)/2.0
 sum -  nocc_ = -0.00038167
 On Iteration in Bisection 12
 a: -0.00038  b:-0.00087

 -0.21024 = (-0.21037 + -0.21011)/2.0
 sum -  nocc_ = -0.00013569
 On Iteration in Bisection 13
 a: -0.00014  b:-0.00038

 -0.21017 = (-0.21024 + -0.21011)/2.0
 sum -  nocc_ = -0.00001270
 On Iteration in Bisection 14
 a: -0.00001  b:-0.00014

 -0.21014 = (-0.21017 + -0.21011)/2.0
 sum -  nocc_ = 0.00004880
 On Iteration in Bisection 15
 a: 0.00005  b:-0.00001

 -0.21016 = (-0.21017 + -0.21014)/2.0
 sum -  nocc_ = 0.00001805
 On Iteration in Bisection 16
 a: 0.00002  b:-0.00001

 -0.21016 = (-0.21017 + -0.21016)/2.0
 sum -  nocc_ = 0.00000268
 On Iteration in Bisection 17
 a: 0.00000  b:-0.00001

 -0.21017 = (-0.21017 + -0.21016)/2.0
 sum -  nocc_ = -0.00000501
 On Iteration in Bisection 18
 a: -0.00001  b:-0.00001

 -0.21017 = (-0.21017 + -0.21016)/2.0
 sum -  nocc_ = -0.00000117
 On Iteration in Bisection 19
 a: -0.00000  b:-0.00001

 -0.21016 = (-0.21017 + -0.21016)/2.0
 sum -  nocc_ = 0.00000075
 On Iteration in Bisection 20
 a: 0.00000  b:-0.00000

 -0.21016 = (-0.21017 + -0.21016)/2.0
 sum -  nocc_ = -0.00000021
 On Iteration in Bisection 21
 a: -0.00000  b:-0.00000

 -0.21016 = (-0.21016 + -0.21016)/2.0
 sum -  nocc_ = 0.00000027
 On Iteration in Bisection 22
 a: 0.00000  b:-0.00000

 -0.21016 = (-0.21016 + -0.21016)/2.0
 sum -  nocc_ = 0.00000003
 On Iteration in Bisection 23
 a: 0.00000  b:-0.00000

 -0.21016 = (-0.21016 + -0.21016)/2.0
 sum -  nocc_ = -0.00000009
 On Iteration in Bisection 24
 a: -0.00000  b:-0.00000

 -0.21016 = (-0.21016 + -0.21016)/2.0
 sum -  nocc_ = -0.00000003
 On Iteration in Bisection 25
 a: -0.00000  b:-0.00000

 -0.21016 = (-0.21016 + -0.21016)/2.0
 sum -  nocc_ = 0.00000000
 ef = -0.21016 sum = 1.00000 

 Iter: 18  T:    20000.000  val:-0.210165  sumni 0.00000
 ne = 1.0000

 iter:19  failiter:19  energy:     -1.169271915577  total:     -0.890757595266  error:     -0.000000000028
 In Bisection function HOMO = -0.381  LUMO =  1.770

 0.69463 = (-0.38076 + 1.77001)/2.0
 sum -  nocc_ = 2.25004483
 On Iteration in Bisection 0
 a: 2.25004  b:-0.49545

 0.15693 = (-0.38076 + 0.69463)/2.0
 sum -  nocc_ = 0.95749416
 On Iteration in Bisection 1
 a: 0.95749  b:-0.49545

 -0.11191 = (-0.38076 + 0.15693)/2.0
 sum -  nocc_ = 0.22776847
 On Iteration in Bisection 2
 a: 0.22777  b:-0.49545

 -0.24634 = (-0.38076 + -0.11191)/2.0
 sum -  nocc_ = -0.07013057
 On Iteration in Bisection 3
 a: -0.07013  b:-0.49545

 -0.17913 = (-0.24634 + -0.11191)/2.0
 sum -  nocc_ = 0.05965049
 On Iteration in Bisection 4
 a: 0.05965  b:-0.07013

 -0.21273 = (-0.24634 + -0.17913)/2.0
 sum -  nocc_ = -0.00481012
 On Iteration in Bisection 5
 a: -0.00481  b:-0.07013

 -0.19593 = (-0.21273 + -0.17913)/2.0
 sum -  nocc_ = 0.02682045
 On Iteration in Bisection 6
 a: 0.02682  b:-0.00481

 -0.20433 = (-0.21273 + -0.19593)/2.0
 sum -  nocc_ = 0.01094330
 On Iteration in Bisection 7
 a: 0.01094  b:-0.00481

 -0.20853 = (-0.21273 + -0.20433)/2.0
 sum -  nocc_ = 0.00306225
 On Iteration in Bisection 8
 a: 0.00306  b:-0.00481

 -0.21063 = (-0.21273 + -0.20853)/2.0
 sum -  nocc_ = -0.00087363
 On Iteration in Bisection 9
 a: -0.00087  b:-0.00481

 -0.20958 = (-0.21063 + -0.20853)/2.0
 sum -  nocc_ = 0.00109421
 On Iteration in Bisection 10
 a: 0.00109  b:-0.00087

 -0.21011 = (-0.21063 + -0.20958)/2.0
 sum -  nocc_ = 0.00011029
 On Iteration in Bisection 11
 a: 0.00011  b:-0.00087

 -0.21037 = (-0.21063 + -0.21011)/2.0
 sum -  nocc_ = -0.00038167
 On Iteration in Bisection 12
 a: -0.00038  b:-0.00087

 -0.21024 = (-0.21037 + -0.21011)/2.0
 sum -  nocc_ = -0.00013569
 On Iteration in Bisection 13
 a: -0.00014  b:-0.00038

 -0.21017 = (-0.21024 + -0.21011)/2.0
 sum -  nocc_ = -0.00001270
 On Iteration in Bisection 14
 a: -0.00001  b:-0.00014

 -0.21014 = (-0.21017 + -0.21011)/2.0
 sum -  nocc_ = 0.00004880
 On Iteration in Bisection 15
 a: 0.00005  b:-0.00001

 -0.21016 = (-0.21017 + -0.21014)/2.0
 sum -  nocc_ = 0.00001805
 On Iteration in Bisection 16
 a: 0.00002  b:-0.00001

 -0.21016 = (-0.21017 + -0.21016)/2.0
 sum -  nocc_ = 0.00000268
 On Iteration in Bisection 17
 a: 0.00000  b:-0.00001

 -0.21017 = (-0.21017 + -0.21016)/2.0
 sum -  nocc_ = -0.00000501
 On Iteration in Bisection 18
 a: -0.00001  b:-0.00001

 -0.21017 = (-0.21017 + -0.21016)/2.0
 sum -  nocc_ = -0.00000117
 On Iteration in Bisection 19
 a: -0.00000  b:-0.00001

 -0.21016 = (-0.21017 + -0.21016)/2.0
 sum -  nocc_ = 0.00000075
 On Iteration in Bisection 20
 a: 0.00000  b:-0.00000

 -0.21016 = (-0.21017 + -0.21016)/2.0
 sum -  nocc_ = -0.00000021
 On Iteration in Bisection 21
 a: -0.00000  b:-0.00000

 -0.21016 = (-0.21016 + -0.21016)/2.0
 sum -  nocc_ = 0.00000027
 On Iteration in Bisection 22
 a: 0.00000  b:-0.00000

 -0.21016 = (-0.21016 + -0.21016)/2.0
 sum -  nocc_ = 0.00000003
 On Iteration in Bisection 23
 a: 0.00000  b:-0.00000

 -0.21016 = (-0.21016 + -0.21016)/2.0
 sum -  nocc_ = -0.00000009
 On Iteration in Bisection 24
 a: -0.00000  b:-0.00000

 -0.21016 = (-0.21016 + -0.21016)/2.0
 sum -  nocc_ = -0.00000003
 On Iteration in Bisection 25
 a: -0.00000  b:-0.00000

 -0.21016 = (-0.21016 + -0.21016)/2.0
 sum -  nocc_ = 0.00000000
 ef = -0.21016 sum = 1.00000 

 Iter: 19  T:    20000.000  val:-0.210165  sumni 0.00000
 ne = 1.0000

 iter:20  failiter:20  energy:     -1.169271915584  total:     -0.890757595273  error:     -0.000000000007
 In Bisection function HOMO = -0.381  LUMO =  1.770

 0.69463 = (-0.38076 + 1.77001)/2.0
 sum -  nocc_ = 2.25004483
 On Iteration in Bisection 0
 a: 2.25004  b:-0.49545

 0.15693 = (-0.38076 + 0.69463)/2.0
 sum -  nocc_ = 0.95749416
 On Iteration in Bisection 1
 a: 0.95749  b:-0.49545

 -0.11191 = (-0.38076 + 0.15693)/2.0
 sum -  nocc_ = 0.22776847
 On Iteration in Bisection 2
 a: 0.22777  b:-0.49545

 -0.24634 = (-0.38076 + -0.11191)/2.0
 sum -  nocc_ = -0.07013057
 On Iteration in Bisection 3
 a: -0.07013  b:-0.49545

 -0.17913 = (-0.24634 + -0.11191)/2.0
 sum -  nocc_ = 0.05965049
 On Iteration in Bisection 4
 a: 0.05965  b:-0.07013

 -0.21273 = (-0.24634 + -0.17913)/2.0
 sum -  nocc_ = -0.00481012
 On Iteration in Bisection 5
 a: -0.00481  b:-0.07013

 -0.19593 = (-0.21273 + -0.17913)/2.0
 sum -  nocc_ = 0.02682045
 On Iteration in Bisection 6
 a: 0.02682  b:-0.00481

 -0.20433 = (-0.21273 + -0.19593)/2.0
 sum -  nocc_ = 0.01094330
 On Iteration in Bisection 7
 a: 0.01094  b:-0.00481

 -0.20853 = (-0.21273 + -0.20433)/2.0
 sum -  nocc_ = 0.00306225
 On Iteration in Bisection 8
 a: 0.00306  b:-0.00481

 -0.21063 = (-0.21273 + -0.20853)/2.0
 sum -  nocc_ = -0.00087363
 On Iteration in Bisection 9
 a: -0.00087  b:-0.00481

 -0.20958 = (-0.21063 + -0.20853)/2.0
 sum -  nocc_ = 0.00109421
 On Iteration in Bisection 10
 a: 0.00109  b:-0.00087

 -0.21011 = (-0.21063 + -0.20958)/2.0
 sum -  nocc_ = 0.00011029
 On Iteration in Bisection 11
 a: 0.00011  b:-0.00087

 -0.21037 = (-0.21063 + -0.21011)/2.0
 sum -  nocc_ = -0.00038167
 On Iteration in Bisection 12
 a: -0.00038  b:-0.00087

 -0.21024 = (-0.21037 + -0.21011)/2.0
 sum -  nocc_ = -0.00013569
 On Iteration in Bisection 13
 a: -0.00014  b:-0.00038

 -0.21017 = (-0.21024 + -0.21011)/2.0
 sum -  nocc_ = -0.00001270
 On Iteration in Bisection 14
 a: -0.00001  b:-0.00014

 -0.21014 = (-0.21017 + -0.21011)/2.0
 sum -  nocc_ = 0.00004880
 On Iteration in Bisection 15
 a: 0.00005  b:-0.00001

 -0.21016 = (-0.21017 + -0.21014)/2.0
 sum -  nocc_ = 0.00001805
 On Iteration in Bisection 16
 a: 0.00002  b:-0.00001

 -0.21016 = (-0.21017 + -0.21016)/2.0
 sum -  nocc_ = 0.00000268
 On Iteration in Bisection 17
 a: 0.00000  b:-0.00001

 -0.21017 = (-0.21017 + -0.21016)/2.0
 sum -  nocc_ = -0.00000501
 On Iteration in Bisection 18
 a: -0.00001  b:-0.00001

 -0.21017 = (-0.21017 + -0.21016)/2.0
 sum -  nocc_ = -0.00000117
 On Iteration in Bisection 19
 a: -0.00000  b:-0.00001

 -0.21016 = (-0.21017 + -0.21016)/2.0
 sum -  nocc_ = 0.00000075
 On Iteration in Bisection 20
 a: 0.00000  b:-0.00000

 -0.21016 = (-0.21017 + -0.21016)/2.0
 sum -  nocc_ = -0.00000021
 On Iteration in Bisection 21
 a: -0.00000  b:-0.00000

 -0.21016 = (-0.21016 + -0.21016)/2.0
 sum -  nocc_ = 0.00000027
 On Iteration in Bisection 22
 a: 0.00000  b:-0.00000

 -0.21016 = (-0.21016 + -0.21016)/2.0
 sum -  nocc_ = 0.00000003
 On Iteration in Bisection 23
 a: 0.00000  b:-0.00000

 -0.21016 = (-0.21016 + -0.21016)/2.0
 sum -  nocc_ = -0.00000009
 On Iteration in Bisection 24
 a: -0.00000  b:-0.00000

 -0.21016 = (-0.21016 + -0.21016)/2.0
 sum -  nocc_ = -0.00000003
 On Iteration in Bisection 25
 a: -0.00000  b:-0.00000

 -0.21016 = (-0.21016 + -0.21016)/2.0
 sum -  nocc_ = 0.00000000
 ef = -0.21016 sum = 1.00000 

 Iter: 20  T:    20000.000  val:-0.210165  sumni 0.00000
 ne = 1.0000

 iter:21  failiter:21  energy:     -1.169271915585  total:     -0.890757595275  error:     -0.000000000002
 In Bisection function HOMO = -0.381  LUMO =  1.770

 0.69463 = (-0.38076 + 1.77001)/2.0
 sum -  nocc_ = 2.25004483
 On Iteration in Bisection 0
 a: 2.25004  b:-0.49545

 0.15693 = (-0.38076 + 0.69463)/2.0
 sum -  nocc_ = 0.95749416
 On Iteration in Bisection 1
 a: 0.95749  b:-0.49545

 -0.11191 = (-0.38076 + 0.15693)/2.0
 sum -  nocc_ = 0.22776847
 On Iteration in Bisection 2
 a: 0.22777  b:-0.49545

 -0.24634 = (-0.38076 + -0.11191)/2.0
 sum -  nocc_ = -0.07013057
 On Iteration in Bisection 3
 a: -0.07013  b:-0.49545

 -0.17913 = (-0.24634 + -0.11191)/2.0
 sum -  nocc_ = 0.05965049
 On Iteration in Bisection 4
 a: 0.05965  b:-0.07013

 -0.21273 = (-0.24634 + -0.17913)/2.0
 sum -  nocc_ = -0.00481012
 On Iteration in Bisection 5
 a: -0.00481  b:-0.07013

 -0.19593 = (-0.21273 + -0.17913)/2.0
 sum -  nocc_ = 0.02682045
 On Iteration in Bisection 6
 a: 0.02682  b:-0.00481

 -0.20433 = (-0.21273 + -0.19593)/2.0
 sum -  nocc_ = 0.01094330
 On Iteration in Bisection 7
 a: 0.01094  b:-0.00481

 -0.20853 = (-0.21273 + -0.20433)/2.0
 sum -  nocc_ = 0.00306225
 On Iteration in Bisection 8
 a: 0.00306  b:-0.00481

 -0.21063 = (-0.21273 + -0.20853)/2.0
 sum -  nocc_ = -0.00087363
 On Iteration in Bisection 9
 a: -0.00087  b:-0.00481

 -0.20958 = (-0.21063 + -0.20853)/2.0
 sum -  nocc_ = 0.00109421
 On Iteration in Bisection 10
 a: 0.00109  b:-0.00087

 -0.21011 = (-0.21063 + -0.20958)/2.0
 sum -  nocc_ = 0.00011029
 On Iteration in Bisection 11
 a: 0.00011  b:-0.00087

 -0.21037 = (-0.21063 + -0.21011)/2.0
 sum -  nocc_ = -0.00038167
 On Iteration in Bisection 12
 a: -0.00038  b:-0.00087

 -0.21024 = (-0.21037 + -0.21011)/2.0
 sum -  nocc_ = -0.00013569
 On Iteration in Bisection 13
 a: -0.00014  b:-0.00038

 -0.21017 = (-0.21024 + -0.21011)/2.0
 sum -  nocc_ = -0.00001270
 On Iteration in Bisection 14
 a: -0.00001  b:-0.00014

 -0.21014 = (-0.21017 + -0.21011)/2.0
 sum -  nocc_ = 0.00004880
 On Iteration in Bisection 15
 a: 0.00005  b:-0.00001

 -0.21016 = (-0.21017 + -0.21014)/2.0
 sum -  nocc_ = 0.00001805
 On Iteration in Bisection 16
 a: 0.00002  b:-0.00001

 -0.21016 = (-0.21017 + -0.21016)/2.0
 sum -  nocc_ = 0.00000268
 On Iteration in Bisection 17
 a: 0.00000  b:-0.00001

 -0.21017 = (-0.21017 + -0.21016)/2.0
 sum -  nocc_ = -0.00000501
 On Iteration in Bisection 18
 a: -0.00001  b:-0.00001

 -0.21017 = (-0.21017 + -0.21016)/2.0
 sum -  nocc_ = -0.00000117
 On Iteration in Bisection 19
 a: -0.00000  b:-0.00001

 -0.21016 = (-0.21017 + -0.21016)/2.0
 sum -  nocc_ = 0.00000075
 On Iteration in Bisection 20
 a: 0.00000  b:-0.00000

 -0.21016 = (-0.21017 + -0.21016)/2.0
 sum -  nocc_ = -0.00000021
 On Iteration in Bisection 21
 a: -0.00000  b:-0.00000

 -0.21016 = (-0.21016 + -0.21016)/2.0
 sum -  nocc_ = 0.00000027
 On Iteration in Bisection 22
 a: 0.00000  b:-0.00000

 -0.21016 = (-0.21016 + -0.21016)/2.0
 sum -  nocc_ = 0.00000003
 On Iteration in Bisection 23
 a: 0.00000  b:-0.00000

 -0.21016 = (-0.21016 + -0.21016)/2.0
 sum -  nocc_ = -0.00000009
 On Iteration in Bisection 24
 a: -0.00000  b:-0.00000

 -0.21016 = (-0.21016 + -0.21016)/2.0
 sum -  nocc_ = -0.00000003
 On Iteration in Bisection 25
 a: -0.00000  b:-0.00000

 -0.21016 = (-0.21016 + -0.21016)/2.0
 sum -  nocc_ = 0.00000000
 ef = -0.21016 sum = 1.00000 

 Iter: 21  T:    20000.000  val:-0.210165  sumni 0.00000
 ne = 1.0000

 iter:22  failiter:22  energy:     -1.169271915586  total:     -0.890757595275  error:     -0.000000000000
 FTHFEnergy =    -0.890758
 FD_dis[0] = 0.93665086 with -0.380760 eig value
 FD_dis[1] = 0.06334702 with -0.039567 eig value
 FD_dis[2] = 0.00000124 with 0.651266 eig value
 FD_dis[3] = 0.00000088 with 0.672830 eig value
 FD_dis[4] = 0.00000000 with 1.304223 eig value
 FD_dis[5] = 0.00000000 with 1.443689 eig value
 FD_dis[6] = 0.00000000 with 1.443689 eig value
 FD_dis[7] = 0.00000000 with 1.511907 eig value
 FD_dis[8] = 0.00000000 with 1.511907 eig value
 FD_dis[9] = 0.00000000 with 1.770011 eig value
*** PSI4 exiting successfully. Buy a developer a beer!
