    -----------------------------------------------------------------------
          PSI4: An Open-Source Ab Initio Electronic Structure Package
                              PSI 4.0 Driver

               Git: Rev {master} 556e8139d3cfa1f96ccffe2cdf22cc56a185d2b2

    J. M. Turney, A. C. Simmonett, R. M. Parrish, E. G. Hohenstein,
    F. A. Evangelista, J. T. Fermann, B. J. Mintz, L. A. Burns, J. J. Wilke,
    M. L. Abrams, N. J. Russ, M. L. Leininger, C. L. Janssen, E. T. Seidl,
    W. D. Allen, H. F. Schaefer, R. A. King, E. F. Valeev, C. D. Sherrill,
    and T. D. Crawford, WIREs Comput. Mol. Sci. 2, 556-565 (2012)
    (doi: 10.1002/wcms.93)

                         Additional Contributions by
    A. E. DePrince, M. Saitow, U. Bozkaya, A. Yu. Sokolov
    -----------------------------------------------------------------------

    Process ID:  11930
    PSI4DATADIR: /Users/kevinhannon/Programs/psi4cmake/psi4/lib
    Memory level set to 256.000 MB

  ==> Input File <==

--------------------------------------------------------------------------

# PYTHONPATH must include directory above plugin directory.
#     Define either externally or here, then import plugin.
sys.path.insert(0, '/Users/kevinhannon/Programs/Quantum_Programs/Quantum-Programs/GS/')
import scf

molecule {
0 1
H
H 1 0.50000
symmetry c1
units angstrom
}


set {
  basis cc-pvdz
  reference rhf
  scf_type  pk
}

set scf {
  DO_FTHF true
  MAX_ITER 130
  MAX_TEMP 100
  TEMP_INCREMENT 0
  bisect  true
  bisect_iter  40
}
energy('rhf')

energy('scf')


--------------------------------------------------------------------------

*** tstart() called on Kevins-MacBook-Pro.local
*** at Fri Apr 10 18:02:02 2015

/Users/kevinhannon/Programs/Quantum_Programs/Quantum-Programs/GS/scf/scf.so loaded.

*** tstart() called on Kevins-MacBook-Pro.local
*** at Fri Apr 10 18:02:02 2015


         ---------------------------------------------------------
                                   SCF
            by Justin Turney, Rob Parrish, and Andy Simmonett
                              RHF Reference
                        1 Threads,    256 MiB Core
         ---------------------------------------------------------

  ==> Geometry <==

    Molecular point group: c1
    Full point group: D_inf_h

    Geometry (in Angstrom), charge = 0, multiplicity = 1:

       Center              X                  Y                   Z       
    ------------   -----------------  -----------------  -----------------
           H          0.000000000000     0.000000000000    -0.250000000000
           H          0.000000000000     0.000000000000     0.250000000000

  Running in c1 symmetry.

  Rotational constants: A = ************  B =    133.81393  C =    133.81393 [cm^-1]
  Rotational constants: A = ************  B = 4011640.82188  C = 4011640.82188 [MHz]
  Nuclear repulsion =    1.058354417180000

  Charge       = 0
  Multiplicity = 1
  Electrons    = 2
  Nalpha       = 1
  Nbeta        = 1

  ==> Algorithm <==

  SCF Algorithm Type is PK.
  DIIS enabled.
  MOM disabled.
  Fractional occupation disabled.
  Guess Type is CORE.
  Energy threshold   = 1.00e-06
  Density threshold  = 1.00e-06
  Integral threshold = 0.00e+00

  ==> Primary Basis <==

  Basis Set: CC-PVDZ
    Number of shells: 6
    Number of basis function: 10
    Number of Cartesian functions: 10
    Spherical Harmonics?: true
    Max angular momentum: 1

  ==> Pre-Iterations <==

   -------------------------------------------------------
    Irrep   Nso     Nmo     Nalpha   Nbeta   Ndocc  Nsocc
   -------------------------------------------------------
     A         10      10       0       0       0       0
   -------------------------------------------------------
    Total      10      10       1       1       1       0
   -------------------------------------------------------

  Starting with a DF guess...

 OEINTS: Overlap, kinetic, potential, dipole, and quadrupole integrals
         stored in file 35.

  ==> Integral Setup <==

  ==> DFJK: Density-Fitted J/K Matrices <==

    J tasked:                  Yes
    K tasked:                  Yes
    wK tasked:                  No
    OpenMP threads:              1
    Integrals threads:           1
    Memory (MB):               183
    Algorithm:                Core
    Integral Cache:           NONE
    Schwarz Cutoff:          1E-12
    Fitting Condition:       1E-12

   => Auxiliary Basis Set <=

  Basis Set: 
    Number of shells: 18
    Number of basis function: 46
    Number of Cartesian functions: 50
    Spherical Harmonics?: true
    Max angular momentum: 2

  Minimum eigenvalue in the overlap matrix is 1.2993780459E-02.
  Using Symmetric Orthogonalization.
  SCF Guess: Core (One-Electron) Hamiltonian.

  ==> Iterations <==

                           Total Energy        Delta E     RMS |[F,P]|

   @DF-RHF iter   1:    -0.99831091272004   -9.98311e-01   2.26827e-02 
   @DF-RHF iter   2:    -1.04670120620207   -4.83903e-02   4.44913e-03 DIIS
   @DF-RHF iter   3:    -1.04879951700603   -2.09831e-03   2.54054e-04 DIIS
   @DF-RHF iter   4:    -1.04880302208504   -3.50508e-06   2.14109e-05 DIIS
   @DF-RHF iter   5:    -1.04880307195209   -4.98671e-08   6.15949e-08 DIIS

  DF guess converged.

  ==> Integral Setup <==

 MINTS: Wrapper to libmints.
   by Justin Turney

   Calculation information:
      Number of atoms:                   2
      Number of AO shells:               6
      Number of SO shells:               6
      Number of primitives:             10
      Number of atomic orbitals:        10
      Number of basis functions:        10

      Number of irreps:                  1
      Integral cutoff                 0.00e+00
      Number of functions per irrep: [  10 ]

 OEINTS: Overlap, kinetic, potential, dipole, and quadrupole integrals
         stored in file 35.

      Computing two-electron integrals...done
      Computed 512 non-zero two-electron integrals.
        Stored in file 33.

	Batch   1 pq = [       0,      55] index = [             0,1540]
  ==> DiskJK: Disk-Based J/K Matrices <==

    J tasked:                  Yes
    K tasked:                  Yes
    wK tasked:                  No
    Memory (MB):               183
    Schwarz Cutoff:          1E-12

   @RHF iter   6:    -1.04880055810161    2.51385e-06   5.55068e-07 DIIS
   @RHF iter   7:    -1.04880055813123   -2.96252e-11   9.88266e-08 DIIS

  ==> Post-Iterations <==

    Orbital Energies (a.u.)
    -----------------------

    Doubly Occupied:                                                      

       1A     -0.677456  

    Virtual:                                                              

       2A      0.238185     3A      0.421537     4A      1.168756  
       5A      1.332750     6A      1.332750     7A      2.146500  
       8A      2.202789     9A      2.202789    10A      5.939503  

    Final Occupation by Irrep:
              A 
    DOCC [     1 ]

  Energy converged.

  @RHF Final Energy:    -1.04880055813123

   => Energetics <=

    Nuclear Repulsion Energy =              1.0583544171799999
    One-Electron Energy =                  -2.8593992182220243
    Two-Electron Energy =                   0.7522442429107923
    DFT Exchange-Correlation Energy =       0.0000000000000000
    Empirical Dispersion Energy =           0.0000000000000000
    PCM Polarization Energy =               0.0000000000000000
    EFP Energy =                            0.0000000000000000
    Total Energy =                         -1.0488005581312321

    Alert: EFP and PCM quantities not currently incorporated into SCF psivars.

Properties will be evaluated at   0.000000,   0.000000,   0.000000 Bohr
  ==> Properties <==


Properties computed using the SCF density matrix

  Nuclear Dipole Moment: (a.u.)
     X:     0.0000      Y:     0.0000      Z:     0.0000

  Electronic Dipole Moment: (a.u.)
     X:     0.0000      Y:    -0.0000      Z:    -0.0000

  Dipole Moment: (a.u.)
     X:     0.0000      Y:    -0.0000      Z:    -0.0000     Total:     0.0000

  Dipole Moment: (Debye)
     X:     0.0000      Y:    -0.0000      Z:    -0.0000     Total:     0.0000


  Saving occupied orbitals to File 180.

*** tstop() called on Kevins-MacBook-Pro.local at Fri Apr 10 18:02:02 2015
Module time:
	user time   =       0.20 seconds =       0.00 minutes
	system time =       0.01 seconds =       0.00 minutes
	total time  =          0 seconds =       0.00 minutes
Total time:
	user time   =       0.21 seconds =       0.00 minutes
	system time =       0.01 seconds =       0.00 minutes
	total time  =          0 seconds =       0.00 minutes

*** tstart() called on Kevins-MacBook-Pro.local
*** at Fri Apr 10 18:02:02 2015


         ---------------------------------------------------------
                                   SCF
            by Justin Turney, Rob Parrish, and Andy Simmonett
                              RHF Reference
                        1 Threads,    256 MiB Core
         ---------------------------------------------------------

  ==> Geometry <==

    Molecular point group: c1
    Full point group: D_inf_h

    Geometry (in Angstrom), charge = 0, multiplicity = 1:

       Center              X                  Y                   Z       
    ------------   -----------------  -----------------  -----------------
           H          0.000000000000     0.000000000000    -0.250000000000
           H          0.000000000000     0.000000000000     0.250000000000

  Running in c1 symmetry.

  Rotational constants: A = ************  B =    133.81393  C =    133.81393 [cm^-1]
  Rotational constants: A = ************  B = 4011640.82188  C = 4011640.82188 [MHz]
  Nuclear repulsion =    1.058354417180000

  Charge       = 0
  Multiplicity = 1
  Electrons    = 2
  Nalpha       = 1
  Nbeta        = 1

  ==> Algorithm <==

  SCF Algorithm Type is PK.
  DIIS enabled.
  MOM disabled.
  Fractional occupation disabled.
  Guess Type is CORE.
  Energy threshold   = 1.00e-08
  Density threshold  = 1.00e-08
  Integral threshold = 0.00e+00

  ==> Primary Basis <==

  Basis Set: CC-PVDZ
    Number of shells: 6
    Number of basis function: 10
    Number of Cartesian functions: 10
    Spherical Harmonics?: true
    Max angular momentum: 1

  ==> Pre-Iterations <==

   -------------------------------------------------------
    Irrep   Nso     Nmo     Nalpha   Nbeta   Ndocc  Nsocc
   -------------------------------------------------------
     A         10      10       0       0       0       0
   -------------------------------------------------------
    Total      10      10       1       1       1       0
   -------------------------------------------------------

  Starting with a DF guess...

 OEINTS: Overlap, kinetic, potential, dipole, and quadrupole integrals
         stored in file 35.

  ==> Integral Setup <==

  ==> DFJK: Density-Fitted J/K Matrices <==

    J tasked:                  Yes
    K tasked:                  Yes
    wK tasked:                  No
    OpenMP threads:              1
    Integrals threads:           1
    Memory (MB):               183
    Algorithm:                Core
    Integral Cache:           NONE
    Schwarz Cutoff:          1E-12
    Fitting Condition:       1E-12

   => Auxiliary Basis Set <=

  Basis Set: 
    Number of shells: 18
    Number of basis function: 46
    Number of Cartesian functions: 50
    Spherical Harmonics?: true
    Max angular momentum: 2

  Minimum eigenvalue in the overlap matrix is 1.2993780459E-02.
  Using Symmetric Orthogonalization.
  SCF Guess: Core (One-Electron) Hamiltonian.

  ==> Iterations <==

                           Total Energy        Delta E     RMS |[F,P]|

   @DF-RHF iter   1:    -0.99831091272004   -9.98311e-01   2.26827e-02 
   @DF-RHF iter   2:    -1.04670120620207   -4.83903e-02   4.44913e-03 DIIS
   @DF-RHF iter   3:    -1.04879951700602   -2.09831e-03   2.54054e-04 DIIS
   @DF-RHF iter   4:    -1.04880302208504   -3.50508e-06   2.14109e-05 DIIS
   @DF-RHF iter   5:    -1.04880307195209   -4.98671e-08   6.15949e-08 DIIS
   @DF-RHF iter   6:    -1.04880307195251   -4.18332e-13   7.67496e-11 DIIS

  DF guess converged.

  ==> Integral Setup <==

 MINTS: Wrapper to libmints.
   by Justin Turney

   Calculation information:
      Number of atoms:                   2
      Number of AO shells:               6
      Number of SO shells:               6
      Number of primitives:             10
      Number of atomic orbitals:        10
      Number of basis functions:        10

      Number of irreps:                  1
      Integral cutoff                 0.00e+00
      Number of functions per irrep: [  10 ]

 OEINTS: Overlap, kinetic, potential, dipole, and quadrupole integrals
         stored in file 35.

      Computing two-electron integrals...done
      Computed 512 non-zero two-electron integrals.
        Stored in file 33.

	Batch   1 pq = [       0,      55] index = [             0,1540]
  ==> DiskJK: Disk-Based J/K Matrices <==

    J tasked:                  Yes
    K tasked:                  Yes
    wK tasked:                  No
    Memory (MB):               183
    Schwarz Cutoff:          1E-12

   @RHF iter   7:    -1.04880055810162    2.51385e-06   5.54994e-07 DIIS
   @RHF iter   8:    -1.04880055813123   -2.96163e-11   9.88121e-08 DIIS
   @RHF iter   9:    -1.04880055813231   -1.07647e-12   5.37718e-09 DIIS

  ==> Post-Iterations <==

    Orbital Energies (a.u.)
    -----------------------

    Doubly Occupied:                                                      

       1A     -0.677456  

    Virtual:                                                              

       2A      0.238185     3A      0.421537     4A      1.168756  
       5A      1.332750     6A      1.332750     7A      2.146500  
       8A      2.202789     9A      2.202789    10A      5.939503  

    Final Occupation by Irrep:
              A 
    DOCC [     1 ]

  Energy converged.

  @RHF Final Energy:    -1.04880055813231

   => Energetics <=

    Nuclear Repulsion Energy =              1.0583544171799999
    One-Electron Energy =                  -2.8593986995659186
    Two-Electron Energy =                   0.7522437242536090
    DFT Exchange-Correlation Energy =       0.0000000000000000
    Empirical Dispersion Energy =           0.0000000000000000
    PCM Polarization Energy =               0.0000000000000000
    EFP Energy =                            0.0000000000000000
    Total Energy =                         -1.0488005581323097

    Alert: EFP and PCM quantities not currently incorporated into SCF psivars.

Properties will be evaluated at   0.000000,   0.000000,   0.000000 Bohr
  ==> Properties <==


Properties computed using the SCF density matrix

  Nuclear Dipole Moment: (a.u.)
     X:     0.0000      Y:     0.0000      Z:     0.0000

  Electronic Dipole Moment: (a.u.)
     X:     0.0000      Y:    -0.0000      Z:    -0.0000

  Dipole Moment: (a.u.)
     X:     0.0000      Y:    -0.0000      Z:    -0.0000     Total:     0.0000

  Dipole Moment: (Debye)
     X:     0.0000      Y:    -0.0000      Z:    -0.0000     Total:     0.0000


  Saving occupied orbitals to File 180.

*** tstop() called on Kevins-MacBook-Pro.local at Fri Apr 10 18:02:02 2015
Module time:
	user time   =       0.19 seconds =       0.00 minutes
	system time =       0.01 seconds =       0.00 minutes
	total time  =          0 seconds =       0.00 minutes
Total time:
	user time   =       0.41 seconds =       0.01 minutes
	system time =       0.02 seconds =       0.00 minutes
	total time  =          0 seconds =       0.00 minutes
Reading options from the SCF block
Calling plugin scf.so.
    Molecular point group: c1
    Full point group: D_inf_h

    Geometry (in Angstrom), charge = 0, multiplicity = 1:

       Center              X                  Y                   Z       
    ------------   -----------------  -----------------  -----------------
           H          0.000000000000     0.000000000000    -0.250000000000
           H          0.000000000000     0.000000000000     0.250000000000


    Nuclear repulsion energy:       1.05835442

  ## Overlap (Symmetry 0) ##
  Irrep: 1 Size: 10 x 10

                 1                   2                   3                   4                   5

    1     1.00000000000000     0.68486025149275     0.00000000000000     0.00000000000000     0.00000000000000
    2     0.68486025149275     1.00000000000000     0.00000000000000     0.00000000000000     0.00000000000000
    3     0.00000000000000     0.00000000000000     1.00000000000000     0.00000000000000     0.00000000000000
    4     0.00000000000000     0.00000000000000     0.00000000000000     1.00000000000000     0.00000000000000
    5     0.00000000000000     0.00000000000000     0.00000000000000     0.00000000000000     1.00000000000000
    6     0.76476471866075     0.62752824934519     0.52404343432147     0.00000000000000     0.00000000000000
    7     0.62752824934519     0.94699758204888     0.12394167372702     0.00000000000000     0.00000000000000
    8    -0.52404343432147    -0.12394167372702     0.25369906492993     0.00000000000000     0.00000000000000
    9     0.00000000000000     0.00000000000000     0.00000000000000     0.72287387491506     0.00000000000000
   10     0.00000000000000     0.00000000000000     0.00000000000000     0.00000000000000     0.72287387491506

                 6                   7                   8                   9                  10

    1     0.76476471866075     0.62752824934519    -0.52404343432147     0.00000000000000     0.00000000000000
    2     0.62752824934519     0.94699758204888    -0.12394167372702     0.00000000000000     0.00000000000000
    3     0.52404343432147     0.12394167372702     0.25369906492993     0.00000000000000     0.00000000000000
    4     0.00000000000000     0.00000000000000     0.00000000000000     0.72287387491506     0.00000000000000
    5     0.00000000000000     0.00000000000000     0.00000000000000     0.00000000000000     0.72287387491506
    6     1.00000000000000     0.68486025149275    -0.00000000000000     0.00000000000000     0.00000000000000
    7     0.68486025149275     1.00000000000000    -0.00000000000000     0.00000000000000     0.00000000000000
    8    -0.00000000000000    -0.00000000000000     1.00000000000000     0.00000000000000     0.00000000000000
    9     0.00000000000000     0.00000000000000     0.00000000000000     1.00000000000000     0.00000000000000
   10     0.00000000000000     0.00000000000000     0.00000000000000     0.00000000000000     1.00000000000000



  ## Kinetic (Symmetry 0) ##
  Irrep: 1 Size: 10 x 10

                 1                   2                   3                   4                   5

    1     0.96945722711242     0.20123413106538     0.00000000000000     0.00000000000000     0.00000000000000
    2     0.20123413106538     0.18300000000000     0.00000000000000     0.00000000000000     0.00000000000000
    3     0.00000000000000     0.00000000000000     1.81750000000000     0.00000000000000     0.00000000000000
    4     0.00000000000000     0.00000000000000     0.00000000000000     1.81750000000000     0.00000000000000
    5     0.00000000000000     0.00000000000000     0.00000000000000     0.00000000000000     1.81750000000000
    6     0.51079431865824     0.17354119558686     0.79330310537282     0.00000000000000     0.00000000000000
    7     0.17354119558686     0.16700873761956     0.06232495307594     0.00000000000000     0.00000000000000
    8    -0.79330310537282    -0.06232495307594     0.06015365220332     0.00000000000000     0.00000000000000
    9     0.00000000000000     0.00000000000000     0.00000000000000     1.14327822422853     0.00000000000000
   10     0.00000000000000     0.00000000000000     0.00000000000000     0.00000000000000     1.14327822422853

                 6                   7                   8                   9                  10

    1     0.51079431865824     0.17354119558686    -0.79330310537282     0.00000000000000     0.00000000000000
    2     0.17354119558686     0.16700873761956    -0.06232495307594     0.00000000000000     0.00000000000000
    3     0.79330310537282     0.06232495307594     0.06015365220332     0.00000000000000     0.00000000000000
    4     0.00000000000000     0.00000000000000     0.00000000000000     1.14327822422853     0.00000000000000
    5     0.00000000000000     0.00000000000000     0.00000000000000     0.00000000000000     1.14327822422853
    6     0.96945722711242     0.20123413106538    -0.00000000000000     0.00000000000000     0.00000000000000
    7     0.20123413106538     0.18300000000000    -0.00000000000000     0.00000000000000     0.00000000000000
    8    -0.00000000000000    -0.00000000000000     1.81750000000000     0.00000000000000     0.00000000000000
    9     0.00000000000000     0.00000000000000     0.00000000000000     1.81750000000000     0.00000000000000
   10     0.00000000000000     0.00000000000000     0.00000000000000     0.00000000000000     1.81750000000000



  ## Potential (Symmetry 0) ##
  Irrep: 1 Size: 10 x 10

                 1                   2                   3                   4                   5

    1    -2.27967700036042    -1.16836050225157    -0.34059396597628     0.00000000000000     0.00000000000000
    2    -1.16836050225157    -1.07679753925125    -0.21245630862846     0.00000000000000     0.00000000000000
    3    -0.34059396597628    -0.21245630862846    -1.92230897019307     0.00000000000000     0.00000000000000
    4     0.00000000000000     0.00000000000000     0.00000000000000    -1.63117553722241     0.00000000000000
    5     0.00000000000000     0.00000000000000     0.00000000000000     0.00000000000000    -1.63117553722241
    6    -1.75996895749565    -1.09256783229529    -1.35634054227230     0.00000000000000     0.00000000000000
    7    -1.09256783229529    -1.03681715474837    -0.37949929703511     0.00000000000000     0.00000000000000
    8     1.35634054227230     0.37949929703511    -0.28378645786530     0.00000000000000     0.00000000000000
    9     0.00000000000000     0.00000000000000     0.00000000000000    -1.23187504667962     0.00000000000000
   10     0.00000000000000     0.00000000000000     0.00000000000000     0.00000000000000    -1.23187504667962

                 6                   7                   8                   9                  10

    1    -1.75996895749565    -1.09256783229529     1.35634054227230     0.00000000000000     0.00000000000000
    2    -1.09256783229529    -1.03681715474837     0.37949929703511     0.00000000000000     0.00000000000000
    3    -1.35634054227230    -0.37949929703511    -0.28378645786530     0.00000000000000     0.00000000000000
    4     0.00000000000000     0.00000000000000     0.00000000000000    -1.23187504667962     0.00000000000000
    5     0.00000000000000     0.00000000000000     0.00000000000000     0.00000000000000    -1.23187504667962
    6    -2.27967700036042    -1.16836050225157     0.34059396597628     0.00000000000000     0.00000000000000
    7    -1.16836050225157    -1.07679753925125     0.21245630862846     0.00000000000000     0.00000000000000
    8     0.34059396597628     0.21245630862846    -1.92230897019307     0.00000000000000     0.00000000000000
    9     0.00000000000000     0.00000000000000     0.00000000000000    -1.63117553722241     0.00000000000000
   10     0.00000000000000     0.00000000000000     0.00000000000000     0.00000000000000    -1.63117553722241



  ## One Electron Ints (Symmetry 0) ##
  Irrep: 1 Size: 10 x 10

                 1                   2                   3                   4                   5

    1    -1.31021977324800    -0.96712637118619    -0.34059396597628     0.00000000000000     0.00000000000000
    2    -0.96712637118619    -0.89379753925125    -0.21245630862846     0.00000000000000     0.00000000000000
    3    -0.34059396597628    -0.21245630862846    -0.10480897019307     0.00000000000000     0.00000000000000
    4     0.00000000000000     0.00000000000000     0.00000000000000     0.18632446277759     0.00000000000000
    5     0.00000000000000     0.00000000000000     0.00000000000000     0.00000000000000     0.18632446277759
    6    -1.24917463883741    -0.91902663670843    -0.56303743689948     0.00000000000000     0.00000000000000
    7    -0.91902663670843    -0.86980841712882    -0.31717434395917     0.00000000000000     0.00000000000000
    8     0.56303743689948     0.31717434395917    -0.22363280566198     0.00000000000000     0.00000000000000
    9     0.00000000000000     0.00000000000000     0.00000000000000    -0.08859682245109     0.00000000000000
   10     0.00000000000000     0.00000000000000     0.00000000000000     0.00000000000000    -0.08859682245109

                 6                   7                   8                   9                  10

    1    -1.24917463883741    -0.91902663670843     0.56303743689948     0.00000000000000     0.00000000000000
    2    -0.91902663670843    -0.86980841712882     0.31717434395917     0.00000000000000     0.00000000000000
    3    -0.56303743689948    -0.31717434395917    -0.22363280566198     0.00000000000000     0.00000000000000
    4     0.00000000000000     0.00000000000000     0.00000000000000    -0.08859682245109     0.00000000000000
    5     0.00000000000000     0.00000000000000     0.00000000000000     0.00000000000000    -0.08859682245109
    6    -1.31021977324800    -0.96712637118619     0.34059396597628     0.00000000000000     0.00000000000000
    7    -0.96712637118619    -0.89379753925125     0.21245630862846     0.00000000000000     0.00000000000000
    8     0.34059396597628     0.21245630862846    -0.10480897019307     0.00000000000000     0.00000000000000
    9     0.00000000000000     0.00000000000000     0.00000000000000     0.18632446277759     0.00000000000000
   10     0.00000000000000     0.00000000000000     0.00000000000000     0.00000000000000     0.18632446277759




	There are 0 unique integrals

  ## Fock (Symmetry 0) ##
  Irrep: 1 Size: 10 x 10

                 1                   2                   3                   4                   5

    1     1.14745791605416    -0.37626567209344     0.62431898000370     0.00000000000000     0.00000000000000
    2    -0.37626567209343    -0.36506111129570     0.10531077861111     0.00000000000000     0.00000000000000
    3     0.62431898000370     0.10531077861111     0.69724686970292     0.00000000000000     0.00000000000000
    4     0.00000000000000     0.00000000000000     0.00000000000000     0.52438376519497    -0.00000000000000
    5     0.00000000000000     0.00000000000000     0.00000000000000    -0.00000000000000     0.52438376519497
    6    -2.22861693976938    -0.04712873019101    -1.27487732594611     0.00000000000000     0.00000000000000
    7    -0.04712873019101    -0.16615375746235    -0.06387773983234     0.00000000000000     0.00000000000000
    8     1.27487732594610     0.06387773983234    -0.00083053705306     0.00000000000000     0.00000000000000
    9     0.00000000000000     0.00000000000000     0.00000000000000    -0.46766014674012    -0.00000000000000
   10     0.00000000000000     0.00000000000000     0.00000000000000     0.00000000000000    -0.46766014674013

                 6                   7                   8                   9                  10

    1    -2.22861693976938    -0.04712873019101     1.27487732594610     0.00000000000000     0.00000000000000
    2    -0.04712873019101    -0.16615375746235     0.06387773983234     0.00000000000000     0.00000000000000
    3    -1.27487732594611    -0.06387773983234    -0.00083053705306     0.00000000000000     0.00000000000000
    4     0.00000000000000     0.00000000000000     0.00000000000000    -0.46766014674012     0.00000000000000
    5     0.00000000000000     0.00000000000000     0.00000000000000    -0.00000000000000    -0.46766014674013
    6     1.14745791605416    -0.37626567209344    -0.62431898000369     0.00000000000000     0.00000000000000
    7    -0.37626567209344    -0.36506111129570    -0.10531077861111     0.00000000000000     0.00000000000000
    8    -0.62431898000369    -0.10531077861111     0.69724686970291     0.00000000000000     0.00000000000000
    9     0.00000000000000     0.00000000000000     0.00000000000000     0.52438376519497    -0.00000000000000
   10     0.00000000000000     0.00000000000000     0.00000000000000    -0.00000000000000     0.52438376519497



  ## C (Symmetry 0) ##
  Irrep: 1 Size: 10 x 10

                 1                   2                   3                   4                   5

    1     2.54371729445491     2.25949377519990     0.40296676986865     3.17795877496390    -0.97038406923616
    2    -0.72137926969601    -1.64237782659892    -0.09046525362358    -0.09615982214274     0.03763494859582
    3     0.31325001988329     1.34211160292582     0.01691942307659     1.24960817325964    -0.45416900624463
    4    -0.25434986303860     0.70644602243220     0.56714767856826     0.02621141213015     0.40139673859015
    5     0.35729501963867    -0.01892977446193     0.18381597443336     0.37376318748931     0.86354930630580
    6    -1.52339734812047    -2.00517133838478    -0.65896785920463    -3.65342711354555     1.27038524191419
    7    -0.08417562432505     1.24749252844134     1.06638132150281     0.28745327122457    -0.16099869333682
    8     0.93310547656697     0.64288584181035     0.12956148614412     1.95373648710874    -0.41350761946985
    9     0.10873154681567    -0.30199728768546    -0.24244889942906    -0.06131494750695    -0.93896581511555
   10    -0.83580103448301     0.04428140390486    -0.42999082870306    -0.15977932534722    -0.36915707641633

                 6                   7                   8                   9                  10

    1     2.23045537395980     1.70380650654832    -0.95464836164004     0.97342633233661    -0.82642697429077
    2     0.85053779739868     1.14600545401206     2.85874844724251    -0.07447323800326     0.03621880357040
    3     0.38735282054279     1.47356065627016     0.11358207853567     0.77785910074880    -0.42336355076179
    4     0.25434986303860    -0.70644602243220     0.56714767856826    -0.02621141213015    -0.40139673859015
    5    -0.35729501963867     0.01892977446194     0.18381597443336     0.37376318748931     0.86354930630580
    6    -1.45433537901867    -1.88266408657063     0.78059201634679    -1.96156114721806     1.15990552982649
    7    -1.14845801817634    -0.64041065359390    -2.94067553576976     0.48653045406564    -0.17399853509808
    8     0.92503304657505     0.62856636574220    -0.14377774013492    -0.39775898711349    -0.25995376346816
    9    -0.10873154681567     0.30199728768546    -0.24244889942906     0.06131494750695     0.93896581511555
   10     0.83580103448301    -0.04428140390486    -0.42999082870306    -0.15977932534722    -0.36915707641633




 In Bisection function HOMO = -1.459  LUMO =  4.371

 1.45560 = (-1.45939 + 4.37058)/2.0
 sum -  nocc_ = 8.00000000
 On Iteration in Bisection 0
 a: 8.00000  b:-0.50000

 -0.00190 = (-1.45939 + 1.45560)/2.0
 sum -  nocc_ = 2.00000000
 On Iteration in Bisection 1
 a: 2.00000  b:-0.50000

 -0.73064 = (-1.45939 + -0.00190)/2.0
 sum -  nocc_ = 0.00000000
 ef = -0.73064 sum = 1.00000 

 Iter: 0  T:      100.000  val:-0.730642  sumni 0.00000
 ne = 1.0000

Nuc Replusion =       1.058354417180
 1st iteration =       1.211848903330
 In Bisection function HOMO = -0.244  LUMO =  5.668

 2.71191 = (-0.24443 + 5.66825)/2.0
 sum -  nocc_ = 8.00000000
 On Iteration in Bisection 0
 a: 8.00000  b:-0.50000

 1.23374 = (-0.24443 + 2.71191)/2.0
 sum -  nocc_ = 4.00000000
 On Iteration in Bisection 1
 a: 4.00000  b:-0.50000

 0.49465 = (-0.24443 + 1.23374)/2.0
 sum -  nocc_ = 2.00000000
 On Iteration in Bisection 2
 a: 2.00000  b:-0.50000

 0.12511 = (-0.24443 + 0.49465)/2.0
 sum -  nocc_ = 0.00000000
 ef = 0.12511 sum = 1.00000 

 Iter: 0  T:      100.000  val:0.125112  sumni 0.00000
 ne = 1.0000

 iter:1  failiter:1  energy:     -1.652886189141  total:     -0.594531771961  error:     -0.604085631008
 In Bisection function HOMO = -0.685  LUMO =  5.915

 2.61534 = (-0.68466 + 5.91534)/2.0
 sum -  nocc_ = 8.00000000
 On Iteration in Bisection 0
 a: 8.00000  b:-0.50000

 0.96534 = (-0.68466 + 2.61534)/2.0
 sum -  nocc_ = 2.00000000
 On Iteration in Bisection 1
 a: 2.00000  b:-0.50000

 0.14034 = (-0.68466 + 0.96534)/2.0
 sum -  nocc_ = 0.00000000
 ef = 0.14034 sum = 1.00000 

 Iter: 1  T:      100.000  val:0.140339  sumni 0.00000
 ne = 1.0000

 iter:2  failiter:2  energy:     -2.112230073610  total:     -1.053875656430  error:     -0.459343884469
 In Bisection function HOMO = -0.679  LUMO =  5.935

 2.62808 = (-0.67923 + 5.93539)/2.0
 sum -  nocc_ = 8.00000000
 On Iteration in Bisection 0
 a: 8.00000  b:-0.50000

 0.97442 = (-0.67923 + 2.62808)/2.0
 sum -  nocc_ = 2.00000000
 On Iteration in Bisection 1
 a: 2.00000  b:-0.50000

 0.14760 = (-0.67923 + 0.97442)/2.0
 sum -  nocc_ = 0.00000000
 ef = 0.14760 sum = 1.00000 

 Iter: 2  T:      100.000  val:0.147595  sumni 0.00000
 ne = 1.0000

 iter:3  failiter:3  energy:     -2.108603617255  total:     -1.050249200075  error:      0.003626456354
 In Bisection function HOMO = -0.678  LUMO =  5.939

 2.63051 = (-0.67777 + 5.93879)/2.0
 sum -  nocc_ = 8.00000000
 On Iteration in Bisection 0
 a: 8.00000  b:-0.50000

 0.97637 = (-0.67777 + 2.63051)/2.0
 sum -  nocc_ = 2.00000000
 On Iteration in Bisection 1
 a: 2.00000  b:-0.50000

 0.14930 = (-0.67777 + 0.97637)/2.0
 sum -  nocc_ = 0.00000000
 ef = 0.14930 sum = 1.00000 

 Iter: 3  T:      100.000  val:0.149300  sumni 0.00000
 ne = 1.0000

 iter:4  failiter:4  energy:     -2.107412879467  total:     -1.049058462287  error:      0.001190737789
 In Bisection function HOMO = -0.678  LUMO =  5.939

 2.63093 = (-0.67751 + 5.93938)/2.0
 sum -  nocc_ = 8.00000000
 On Iteration in Bisection 0
 a: 8.00000  b:-0.50000

 0.97671 = (-0.67751 + 2.63093)/2.0
 sum -  nocc_ = 2.00000000
 On Iteration in Bisection 1
 a: 2.00000  b:-0.50000

 0.14960 = (-0.67751 + 0.97671)/2.0
 sum -  nocc_ = 0.00000000
 ef = 0.14960 sum = 1.00000 

 Iter: 4  T:      100.000  val:0.149599  sumni 0.00000
 ne = 1.0000

 iter:5  failiter:5  energy:     -2.107200669685  total:     -1.048846252505  error:      0.000212209781
 In Bisection function HOMO = -0.677  LUMO =  5.939

 2.63101 = (-0.67747 + 5.93948)/2.0
 sum -  nocc_ = 8.00000000
 On Iteration in Bisection 0
 a: 8.00000  b:-0.50000

 0.97677 = (-0.67747 + 2.63101)/2.0
 sum -  nocc_ = 2.00000000
 On Iteration in Bisection 1
 a: 2.00000  b:-0.50000

 0.14965 = (-0.67747 + 0.97677)/2.0
 sum -  nocc_ = 0.00000000
 ef = 0.14965 sum = 1.00000 

 Iter: 5  T:      100.000  val:0.149652  sumni 0.00000
 ne = 1.0000

 iter:6  failiter:6  energy:     -2.107163317982  total:     -1.048808900802  error:      0.000037351703
 In Bisection function HOMO = -0.677  LUMO =  5.939

 2.63102 = (-0.67746 + 5.93950)/2.0
 sum -  nocc_ = 8.00000000
 On Iteration in Bisection 0
 a: 8.00000  b:-0.50000

 0.97678 = (-0.67746 + 2.63102)/2.0
 sum -  nocc_ = 2.00000000
 On Iteration in Bisection 1
 a: 2.00000  b:-0.50000

 0.14966 = (-0.67746 + 0.97678)/2.0
 sum -  nocc_ = 0.00000000
 ef = 0.14966 sum = 1.00000 

 Iter: 6  T:      100.000  val:0.149662  sumni 0.00000
 ne = 1.0000

 iter:7  failiter:7  energy:     -2.107156543947  total:     -1.048802126767  error:      0.000006774035
 In Bisection function HOMO = -0.677  LUMO =  5.940

 2.63102 = (-0.67746 + 5.93950)/2.0
 sum -  nocc_ = 8.00000000
 On Iteration in Bisection 0
 a: 8.00000  b:-0.50000

 0.97678 = (-0.67746 + 2.63102)/2.0
 sum -  nocc_ = 2.00000000
 On Iteration in Bisection 1
 a: 2.00000  b:-0.50000

 0.14966 = (-0.67746 + 0.97678)/2.0
 sum -  nocc_ = 0.00000000
 ef = 0.14966 sum = 1.00000 

 Iter: 7  T:      100.000  val:0.149664  sumni 0.00000
 ne = 1.0000

 iter:8  failiter:8  energy:     -2.107155277579  total:     -1.048800860399  error:      0.000001266368
 In Bisection function HOMO = -0.677  LUMO =  5.940

 2.63102 = (-0.67746 + 5.93950)/2.0
 sum -  nocc_ = 8.00000000
 On Iteration in Bisection 0
 a: 8.00000  b:-0.50000

 0.97678 = (-0.67746 + 2.63102)/2.0
 sum -  nocc_ = 2.00000000
 On Iteration in Bisection 1
 a: 2.00000  b:-0.50000

 0.14966 = (-0.67746 + 0.97678)/2.0
 sum -  nocc_ = 0.00000000
 ef = 0.14966 sum = 1.00000 

 Iter: 8  T:      100.000  val:0.149664  sumni 0.00000
 ne = 1.0000

 iter:9  failiter:9  energy:     -2.107155034700  total:     -1.048800617520  error:      0.000000242879
 In Bisection function HOMO = -0.677  LUMO =  5.940

 2.63102 = (-0.67746 + 5.93950)/2.0
 sum -  nocc_ = 8.00000000
 On Iteration in Bisection 0
 a: 8.00000  b:-0.50000

 0.97678 = (-0.67746 + 2.63102)/2.0
 sum -  nocc_ = 2.00000000
 On Iteration in Bisection 1
 a: 2.00000  b:-0.50000

 0.14966 = (-0.67746 + 0.97678)/2.0
 sum -  nocc_ = 0.00000000
 ef = 0.14966 sum = 1.00000 

 Iter: 9  T:      100.000  val:0.149664  sumni 0.00000
 ne = 1.0000

 iter:10  failiter:10  energy:     -2.107154987156  total:     -1.048800569976  error:      0.000000047544
 In Bisection function HOMO = -0.677  LUMO =  5.940

 2.63102 = (-0.67746 + 5.93950)/2.0
 sum -  nocc_ = 8.00000000
 On Iteration in Bisection 0
 a: 8.00000  b:-0.50000

 0.97678 = (-0.67746 + 2.63102)/2.0
 sum -  nocc_ = 2.00000000
 On Iteration in Bisection 1
 a: 2.00000  b:-0.50000

 0.14966 = (-0.67746 + 0.97678)/2.0
 sum -  nocc_ = 0.00000000
 ef = 0.14966 sum = 1.00000 

 Iter: 10  T:      100.000  val:0.149664  sumni 0.00000
 ne = 1.0000

 iter:11  failiter:11  energy:     -2.107154977701  total:     -1.048800560521  error:      0.000000009455
 In Bisection function HOMO = -0.677  LUMO =  5.940

 2.63102 = (-0.67746 + 5.93950)/2.0
 sum -  nocc_ = 8.00000000
 On Iteration in Bisection 0
 a: 8.00000  b:-0.50000

 0.97678 = (-0.67746 + 2.63102)/2.0
 sum -  nocc_ = 2.00000000
 On Iteration in Bisection 1
 a: 2.00000  b:-0.50000

 0.14966 = (-0.67746 + 0.97678)/2.0
 sum -  nocc_ = 0.00000000
 ef = 0.14966 sum = 1.00000 

 Iter: 11  T:      100.000  val:0.149664  sumni 0.00000
 ne = 1.0000

 iter:12  failiter:12  energy:     -2.107154975798  total:     -1.048800558618  error:      0.000000001903
 In Bisection function HOMO = -0.677  LUMO =  5.940

 2.63102 = (-0.67746 + 5.93950)/2.0
 sum -  nocc_ = 8.00000000
 On Iteration in Bisection 0
 a: 8.00000  b:-0.50000

 0.97678 = (-0.67746 + 2.63102)/2.0
 sum -  nocc_ = 2.00000000
 On Iteration in Bisection 1
 a: 2.00000  b:-0.50000

 0.14966 = (-0.67746 + 0.97678)/2.0
 sum -  nocc_ = 0.00000000
 ef = 0.14966 sum = 1.00000 

 Iter: 12  T:      100.000  val:0.149664  sumni 0.00000
 ne = 1.0000

 iter:13  failiter:13  energy:     -2.107154975412  total:     -1.048800558232  error:      0.000000000386
 In Bisection function HOMO = -0.677  LUMO =  5.940

 2.63102 = (-0.67746 + 5.93950)/2.0
 sum -  nocc_ = 8.00000000
 On Iteration in Bisection 0
 a: 8.00000  b:-0.50000

 0.97678 = (-0.67746 + 2.63102)/2.0
 sum -  nocc_ = 2.00000000
 On Iteration in Bisection 1
 a: 2.00000  b:-0.50000

 0.14966 = (-0.67746 + 0.97678)/2.0
 sum -  nocc_ = 0.00000000
 ef = 0.14966 sum = 1.00000 

 Iter: 13  T:      100.000  val:0.149664  sumni 0.00000
 ne = 1.0000

 iter:14  failiter:14  energy:     -2.107154975333  total:     -1.048800558153  error:      0.000000000079
 In Bisection function HOMO = -0.677  LUMO =  5.940

 2.63102 = (-0.67746 + 5.93950)/2.0
 sum -  nocc_ = 8.00000000
 On Iteration in Bisection 0
 a: 8.00000  b:-0.50000

 0.97678 = (-0.67746 + 2.63102)/2.0
 sum -  nocc_ = 2.00000000
 On Iteration in Bisection 1
 a: 2.00000  b:-0.50000

 0.14966 = (-0.67746 + 0.97678)/2.0
 sum -  nocc_ = 0.00000000
 ef = 0.14966 sum = 1.00000 

 Iter: 14  T:      100.000  val:0.149664  sumni 0.00000
 ne = 1.0000

 iter:15  failiter:15  energy:     -2.107154975317  total:     -1.048800558137  error:      0.000000000016
 In Bisection function HOMO = -0.677  LUMO =  5.940

 2.63102 = (-0.67746 + 5.93950)/2.0
 sum -  nocc_ = 8.00000000
 On Iteration in Bisection 0
 a: 8.00000  b:-0.50000

 0.97678 = (-0.67746 + 2.63102)/2.0
 sum -  nocc_ = 2.00000000
 On Iteration in Bisection 1
 a: 2.00000  b:-0.50000

 0.14966 = (-0.67746 + 0.97678)/2.0
 sum -  nocc_ = 0.00000000
 ef = 0.14966 sum = 1.00000 

 Iter: 15  T:      100.000  val:0.149664  sumni 0.00000
 ne = 1.0000

 iter:16  failiter:16  energy:     -2.107154975313  total:     -1.048800558133  error:      0.000000000003
 In Bisection function HOMO = -0.677  LUMO =  5.940

 2.63102 = (-0.67746 + 5.93950)/2.0
 sum -  nocc_ = 8.00000000
 On Iteration in Bisection 0
 a: 8.00000  b:-0.50000

 0.97678 = (-0.67746 + 2.63102)/2.0
 sum -  nocc_ = 2.00000000
 On Iteration in Bisection 1
 a: 2.00000  b:-0.50000

 0.14966 = (-0.67746 + 0.97678)/2.0
 sum -  nocc_ = 0.00000000
 ef = 0.14966 sum = 1.00000 

 Iter: 16  T:      100.000  val:0.149664  sumni 0.00000
 ne = 1.0000

 iter:17  failiter:17  energy:     -2.107154975312  total:     -1.048800558132  error:      0.000000000001
 FTHFEnergy =    -1.048801
 FD_dis[0] = 1.00000000 with -0.677456 eig value
 FD_dis[1] = 0.00000000 with 0.238185 eig value
 FD_dis[2] = 0.00000000 with 0.421537 eig value
 FD_dis[3] = 0.00000000 with 1.168756 eig value
 FD_dis[4] = 0.00000000 with 1.332750 eig value
 FD_dis[5] = 0.00000000 with 1.332750 eig value
 FD_dis[6] = 0.00000000 with 2.146500 eig value
 FD_dis[7] = 0.00000000 with 2.202789 eig value
 FD_dis[8] = 0.00000000 with 2.202789 eig value
 FD_dis[9] = 0.00000000 with 5.939503 eig value
*** PSI4 exiting successfully. Buy a developer a beer!
