    -----------------------------------------------------------------------
          PSI4: An Open-Source Ab Initio Electronic Structure Package
                              PSI 4.0 Driver

               Git: Rev {master} 556e8139d3cfa1f96ccffe2cdf22cc56a185d2b2

    J. M. Turney, A. C. Simmonett, R. M. Parrish, E. G. Hohenstein,
    F. A. Evangelista, J. T. Fermann, B. J. Mintz, L. A. Burns, J. J. Wilke,
    M. L. Abrams, N. J. Russ, M. L. Leininger, C. L. Janssen, E. T. Seidl,
    W. D. Allen, H. F. Schaefer, R. A. King, E. F. Valeev, C. D. Sherrill,
    and T. D. Crawford, WIREs Comput. Mol. Sci. 2, 556-565 (2012)
    (doi: 10.1002/wcms.93)

                         Additional Contributions by
    A. E. DePrince, M. Saitow, U. Bozkaya, A. Yu. Sokolov
    -----------------------------------------------------------------------

    Process ID:  14563
    PSI4DATADIR: /Users/kevinhannon/Programs/psi4cmake/psi4/lib
    Memory level set to 256.000 MB

  ==> Input File <==

--------------------------------------------------------------------------

# PYTHONPATH must include directory above plugin directory.
#     Define either externally or here, then import plugin.
sys.path.insert(0, '/Users/kevinhannon/Programs/Quantum_Programs/Quantum-Programs/GS/')
import scf

molecule {
0 1
H
H 1 1.20000
symmetry c1
units angstrom
}


set {
  basis cc-pvdz
  reference rhf
  scf_type  pk
}

set scf {
  DO_FTHF true
  MAX_ITER 130
  MAX_TEMP 20000
  TEMP_INCREMENT 0
  bisect  true
  bisect_iter  40
}
energy('rhf')
energy('scf')


--------------------------------------------------------------------------

*** tstart() called on Kevins-MacBook-Pro.local
*** at Sun Apr 12 15:45:58 2015

/Users/kevinhannon/Programs/Quantum_Programs/Quantum-Programs/GS/scf/scf.so loaded.

*** tstart() called on Kevins-MacBook-Pro.local
*** at Sun Apr 12 15:45:58 2015


         ---------------------------------------------------------
                                   SCF
            by Justin Turney, Rob Parrish, and Andy Simmonett
                              RHF Reference
                        1 Threads,    256 MiB Core
         ---------------------------------------------------------

  ==> Geometry <==

    Molecular point group: c1
    Full point group: D_inf_h

    Geometry (in Angstrom), charge = 0, multiplicity = 1:

       Center              X                  Y                   Z       
    ------------   -----------------  -----------------  -----------------
           H          0.000000000000     0.000000000000    -0.600000000000
           H          0.000000000000     0.000000000000     0.600000000000

  Running in c1 symmetry.

  Rotational constants: A = ************  B =     23.23159  C =     23.23159 [cm^-1]
  Rotational constants: A = ************  B = 696465.42047  C = 696465.42047 [MHz]
  Nuclear repulsion =    0.440981007158333

  Charge       = 0
  Multiplicity = 1
  Electrons    = 2
  Nalpha       = 1
  Nbeta        = 1

  ==> Algorithm <==

  SCF Algorithm Type is PK.
  DIIS enabled.
  MOM disabled.
  Fractional occupation disabled.
  Guess Type is CORE.
  Energy threshold   = 1.00e-06
  Density threshold  = 1.00e-06
  Integral threshold = 0.00e+00

  ==> Primary Basis <==

  Basis Set: CC-PVDZ
    Number of shells: 6
    Number of basis function: 10
    Number of Cartesian functions: 10
    Spherical Harmonics?: true
    Max angular momentum: 1

  ==> Pre-Iterations <==

   -------------------------------------------------------
    Irrep   Nso     Nmo     Nalpha   Nbeta   Ndocc  Nsocc
   -------------------------------------------------------
     A         10      10       0       0       0       0
   -------------------------------------------------------
    Total      10      10       1       1       1       0
   -------------------------------------------------------

  Starting with a DF guess...

 OEINTS: Overlap, kinetic, potential, dipole, and quadrupole integrals
         stored in file 35.

  ==> Integral Setup <==

  ==> DFJK: Density-Fitted J/K Matrices <==

    J tasked:                  Yes
    K tasked:                  Yes
    wK tasked:                  No
    OpenMP threads:              1
    Integrals threads:           1
    Memory (MB):               183
    Algorithm:                Core
    Integral Cache:           NONE
    Schwarz Cutoff:          1E-12
    Fitting Condition:       1E-12

   => Auxiliary Basis Set <=

  Basis Set: 
    Number of shells: 18
    Number of basis function: 46
    Number of Cartesian functions: 50
    Spherical Harmonics?: true
    Max angular momentum: 2

  Minimum eigenvalue in the overlap matrix is 1.3914981392E-01.
  Using Symmetric Orthogonalization.
  SCF Guess: Core (One-Electron) Hamiltonian.

  ==> Iterations <==

                           Total Energy        Delta E     RMS |[F,P]|

   @DF-RHF iter   1:    -1.01762117058576   -1.01762e+00   1.98247e-02 
   @DF-RHF iter   2:    -1.05977677307618   -4.21556e-02   3.45400e-03 DIIS
   @DF-RHF iter   3:    -1.06111314365643   -1.33637e-03   1.42886e-04 DIIS
   @DF-RHF iter   4:    -1.06111455544821   -1.41179e-06   5.49812e-06 DIIS
   @DF-RHF iter   5:    -1.06111455889154   -3.44333e-09   4.33813e-09 DIIS

  DF guess converged.

  ==> Integral Setup <==

 MINTS: Wrapper to libmints.
   by Justin Turney

   Calculation information:
      Number of atoms:                   2
      Number of AO shells:               6
      Number of SO shells:               6
      Number of primitives:             10
      Number of atomic orbitals:        10
      Number of basis functions:        10

      Number of irreps:                  1
      Integral cutoff                 0.00e+00
      Number of functions per irrep: [  10 ]

 OEINTS: Overlap, kinetic, potential, dipole, and quadrupole integrals
         stored in file 35.

      Computing two-electron integrals...done
      Computed 512 non-zero two-electron integrals.
        Stored in file 33.

	Batch   1 pq = [       0,      55] index = [             0,1540]
  ==> DiskJK: Disk-Based J/K Matrices <==

    J tasked:                  Yes
    K tasked:                  Yes
    wK tasked:                  No
    Memory (MB):               183
    Schwarz Cutoff:          1E-12

   @RHF iter   6:    -1.06111199672580    2.56217e-06   1.01387e-06 DIIS
   @RHF iter   7:    -1.06111199678673   -6.09250e-11   1.63263e-07 DIIS

  ==> Post-Iterations <==

    Orbital Energies (a.u.)
    -----------------------

    Doubly Occupied:                                                      

       1A     -0.485256  

    Virtual:                                                              

       2A      0.100246     3A      0.582959     4A      0.729285  
       5A      1.315308     6A      1.315308     7A      1.472195  
       8A      1.754058     9A      1.754058    10A      2.459835  

    Final Occupation by Irrep:
              A 
    DOCC [     1 ]

  Energy converged.

  @RHF Final Energy:    -1.06111199678673

   => Energetics <=

    Nuclear Repulsion Energy =              0.4409810071583334
    One-Electron Energy =                  -2.0336739703731195
    Two-Electron Energy =                   0.5315809664280582
    DFT Exchange-Correlation Energy =       0.0000000000000000
    Empirical Dispersion Energy =           0.0000000000000000
    PCM Polarization Energy =               0.0000000000000000
    EFP Energy =                            0.0000000000000000
    Total Energy =                         -1.0611119967867280

    Alert: EFP and PCM quantities not currently incorporated into SCF psivars.

Properties will be evaluated at   0.000000,   0.000000,   0.000000 Bohr
  ==> Properties <==


Properties computed using the SCF density matrix

  Nuclear Dipole Moment: (a.u.)
     X:     0.0000      Y:     0.0000      Z:     0.0000

  Electronic Dipole Moment: (a.u.)
     X:     0.0000      Y:     0.0000      Z:     0.0000

  Dipole Moment: (a.u.)
     X:     0.0000      Y:     0.0000      Z:     0.0000     Total:     0.0000

  Dipole Moment: (Debye)
     X:     0.0000      Y:     0.0000      Z:     0.0000     Total:     0.0000


  Saving occupied orbitals to File 180.

*** tstop() called on Kevins-MacBook-Pro.local at Sun Apr 12 15:45:58 2015
Module time:
	user time   =       0.19 seconds =       0.00 minutes
	system time =       0.01 seconds =       0.00 minutes
	total time  =          0 seconds =       0.00 minutes
Total time:
	user time   =       0.20 seconds =       0.00 minutes
	system time =       0.01 seconds =       0.00 minutes
	total time  =          0 seconds =       0.00 minutes

*** tstart() called on Kevins-MacBook-Pro.local
*** at Sun Apr 12 15:45:58 2015


         ---------------------------------------------------------
                                   SCF
            by Justin Turney, Rob Parrish, and Andy Simmonett
                              RHF Reference
                        1 Threads,    256 MiB Core
         ---------------------------------------------------------

  ==> Geometry <==

    Molecular point group: c1
    Full point group: D_inf_h

    Geometry (in Angstrom), charge = 0, multiplicity = 1:

       Center              X                  Y                   Z       
    ------------   -----------------  -----------------  -----------------
           H          0.000000000000     0.000000000000    -0.600000000000
           H          0.000000000000     0.000000000000     0.600000000000

  Running in c1 symmetry.

  Rotational constants: A = ************  B =     23.23159  C =     23.23159 [cm^-1]
  Rotational constants: A = ************  B = 696465.42047  C = 696465.42047 [MHz]
  Nuclear repulsion =    0.440981007158333

  Charge       = 0
  Multiplicity = 1
  Electrons    = 2
  Nalpha       = 1
  Nbeta        = 1

  ==> Algorithm <==

  SCF Algorithm Type is PK.
  DIIS enabled.
  MOM disabled.
  Fractional occupation disabled.
  Guess Type is CORE.
  Energy threshold   = 1.00e-08
  Density threshold  = 1.00e-08
  Integral threshold = 0.00e+00

  ==> Primary Basis <==

  Basis Set: CC-PVDZ
    Number of shells: 6
    Number of basis function: 10
    Number of Cartesian functions: 10
    Spherical Harmonics?: true
    Max angular momentum: 1

  ==> Pre-Iterations <==

   -------------------------------------------------------
    Irrep   Nso     Nmo     Nalpha   Nbeta   Ndocc  Nsocc
   -------------------------------------------------------
     A         10      10       0       0       0       0
   -------------------------------------------------------
    Total      10      10       1       1       1       0
   -------------------------------------------------------

  Starting with a DF guess...

 OEINTS: Overlap, kinetic, potential, dipole, and quadrupole integrals
         stored in file 35.

  ==> Integral Setup <==

  ==> DFJK: Density-Fitted J/K Matrices <==

    J tasked:                  Yes
    K tasked:                  Yes
    wK tasked:                  No
    OpenMP threads:              1
    Integrals threads:           1
    Memory (MB):               183
    Algorithm:                Core
    Integral Cache:           NONE
    Schwarz Cutoff:          1E-12
    Fitting Condition:       1E-12

   => Auxiliary Basis Set <=

  Basis Set: 
    Number of shells: 18
    Number of basis function: 46
    Number of Cartesian functions: 50
    Spherical Harmonics?: true
    Max angular momentum: 2

  Minimum eigenvalue in the overlap matrix is 1.3914981392E-01.
  Using Symmetric Orthogonalization.
  SCF Guess: Core (One-Electron) Hamiltonian.

  ==> Iterations <==

                           Total Energy        Delta E     RMS |[F,P]|

   @DF-RHF iter   1:    -1.01762117058576   -1.01762e+00   1.98247e-02 
   @DF-RHF iter   2:    -1.05977677307618   -4.21556e-02   3.45400e-03 DIIS
   @DF-RHF iter   3:    -1.06111314365643   -1.33637e-03   1.42886e-04 DIIS
   @DF-RHF iter   4:    -1.06111455544821   -1.41179e-06   5.49812e-06 DIIS
   @DF-RHF iter   5:    -1.06111455889154   -3.44333e-09   4.33813e-09 DIIS

  DF guess converged.

  ==> Integral Setup <==

 MINTS: Wrapper to libmints.
   by Justin Turney

   Calculation information:
      Number of atoms:                   2
      Number of AO shells:               6
      Number of SO shells:               6
      Number of primitives:             10
      Number of atomic orbitals:        10
      Number of basis functions:        10

      Number of irreps:                  1
      Integral cutoff                 0.00e+00
      Number of functions per irrep: [  10 ]

 OEINTS: Overlap, kinetic, potential, dipole, and quadrupole integrals
         stored in file 35.

      Computing two-electron integrals...done
      Computed 512 non-zero two-electron integrals.
        Stored in file 33.

	Batch   1 pq = [       0,      55] index = [             0,1540]
  ==> DiskJK: Disk-Based J/K Matrices <==

    J tasked:                  Yes
    K tasked:                  Yes
    wK tasked:                  No
    Memory (MB):               183
    Schwarz Cutoff:          1E-12

   @RHF iter   6:    -1.06111199672580    2.56217e-06   1.01387e-06 DIIS
   @RHF iter   7:    -1.06111199678673   -6.09279e-11   1.63263e-07 DIIS
   @RHF iter   8:    -1.06111199678838   -1.64913e-12   3.69419e-09 DIIS

  ==> Post-Iterations <==

    Orbital Energies (a.u.)
    -----------------------

    Doubly Occupied:                                                      

       1A     -0.485256  

    Virtual:                                                              

       2A      0.100246     3A      0.582960     4A      0.729285  
       5A      1.315309     6A      1.315309     7A      1.472195  
       8A      1.754058     9A      1.754058    10A      2.459835  

    Final Occupation by Irrep:
              A 
    DOCC [     1 ]

  Energy converged.

  @RHF Final Energy:    -1.06111199678838

   => Energetics <=

    Nuclear Repulsion Energy =              0.4409810071583334
    One-Electron Energy =                  -2.0336739396170072
    Two-Electron Energy =                   0.5315809356702953
    DFT Exchange-Correlation Energy =       0.0000000000000000
    Empirical Dispersion Energy =           0.0000000000000000
    PCM Polarization Energy =               0.0000000000000000
    EFP Energy =                            0.0000000000000000
    Total Energy =                         -1.0611119967883784

    Alert: EFP and PCM quantities not currently incorporated into SCF psivars.

Properties will be evaluated at   0.000000,   0.000000,   0.000000 Bohr
  ==> Properties <==


Properties computed using the SCF density matrix

  Nuclear Dipole Moment: (a.u.)
     X:     0.0000      Y:     0.0000      Z:     0.0000

  Electronic Dipole Moment: (a.u.)
     X:     0.0000      Y:     0.0000      Z:    -0.0000

  Dipole Moment: (a.u.)
     X:     0.0000      Y:     0.0000      Z:    -0.0000     Total:     0.0000

  Dipole Moment: (Debye)
     X:     0.0000      Y:     0.0000      Z:    -0.0000     Total:     0.0000


  Saving occupied orbitals to File 180.

*** tstop() called on Kevins-MacBook-Pro.local at Sun Apr 12 15:45:58 2015
Module time:
	user time   =       0.19 seconds =       0.00 minutes
	system time =       0.01 seconds =       0.00 minutes
	total time  =          0 seconds =       0.00 minutes
Total time:
	user time   =       0.41 seconds =       0.01 minutes
	system time =       0.02 seconds =       0.00 minutes
	total time  =          0 seconds =       0.00 minutes
Reading options from the SCF block
Calling plugin scf.so.
    Molecular point group: c1
    Full point group: D_inf_h

    Geometry (in Angstrom), charge = 0, multiplicity = 1:

       Center              X                  Y                   Z       
    ------------   -----------------  -----------------  -----------------
           H          0.000000000000     0.000000000000    -0.600000000000
           H          0.000000000000     0.000000000000     0.600000000000


    Nuclear repulsion energy:       0.44098101

  ## Overlap (Symmetry 0) ##
  Irrep: 1 Size: 10 x 10

                 1                   2                   3                   4                   5

    1     1.00000000000000     0.68486025149275     0.00000000000000     0.00000000000000     0.00000000000000
    2     0.68486025149275     1.00000000000000     0.00000000000000     0.00000000000000     0.00000000000000
    3     0.00000000000000     0.00000000000000     1.00000000000000     0.00000000000000     0.00000000000000
    4     0.00000000000000     0.00000000000000     0.00000000000000     1.00000000000000     0.00000000000000
    5     0.00000000000000     0.00000000000000     0.00000000000000     0.00000000000000     1.00000000000000
    6     0.25323302459162     0.41407359245062     0.31363447417014     0.00000000000000     0.00000000000000
    7     0.41407359245062     0.73075112383926     0.19082040378151     0.00000000000000     0.00000000000000
    8    -0.31363447417014    -0.19082040378151    -0.42238566268992     0.00000000000000     0.00000000000000
    9     0.00000000000000     0.00000000000000     0.00000000000000     0.15424111966447     0.00000000000000
   10     0.00000000000000     0.00000000000000     0.00000000000000     0.00000000000000     0.15424111966447

                 6                   7                   8                   9                  10

    1     0.25323302459162     0.41407359245062    -0.31363447417014     0.00000000000000     0.00000000000000
    2     0.41407359245062     0.73075112383926    -0.19082040378151     0.00000000000000     0.00000000000000
    3     0.31363447417014     0.19082040378151    -0.42238566268992     0.00000000000000     0.00000000000000
    4     0.00000000000000     0.00000000000000     0.00000000000000     0.15424111966447     0.00000000000000
    5     0.00000000000000     0.00000000000000     0.00000000000000     0.00000000000000     0.15424111966447
    6     1.00000000000000     0.68486025149275    -0.00000000000000     0.00000000000000     0.00000000000000
    7     0.68486025149275     1.00000000000000     0.00000000000000     0.00000000000000     0.00000000000000
    8    -0.00000000000000     0.00000000000000     1.00000000000000     0.00000000000000     0.00000000000000
    9     0.00000000000000     0.00000000000000     0.00000000000000     1.00000000000000     0.00000000000000
   10     0.00000000000000     0.00000000000000     0.00000000000000     0.00000000000000     1.00000000000000



  ## Kinetic (Symmetry 0) ##
  Irrep: 1 Size: 10 x 10

                 1                   2                   3                   4                   5

    1     0.96945722711242     0.20123413106538     0.00000000000000     0.00000000000000     0.00000000000000
    2     0.20123413106538     0.18300000000000     0.00000000000000     0.00000000000000     0.00000000000000
    3     0.00000000000000     0.00000000000000     1.81750000000000     0.00000000000000     0.00000000000000
    4     0.00000000000000     0.00000000000000     0.00000000000000     1.81750000000000     0.00000000000000
    5     0.00000000000000     0.00000000000000     0.00000000000000     0.00000000000000     1.81750000000000
    6     0.01951643922366     0.08058840199849     0.15457084329481     0.00000000000000     0.00000000000000
    7     0.08058840199849     0.10576216178115     0.07825542548010     0.00000000000000     0.00000000000000
    8    -0.15457084329481    -0.07825542548010    -0.61289846080568     0.00000000000000     0.00000000000000
    9     0.00000000000000     0.00000000000000     0.00000000000000     0.07072939960436     0.00000000000000
   10     0.00000000000000     0.00000000000000     0.00000000000000     0.00000000000000     0.07072939960436

                 6                   7                   8                   9                  10

    1     0.01951643922366     0.08058840199849    -0.15457084329481     0.00000000000000     0.00000000000000
    2     0.08058840199849     0.10576216178115    -0.07825542548010     0.00000000000000     0.00000000000000
    3     0.15457084329481     0.07825542548010    -0.61289846080568     0.00000000000000     0.00000000000000
    4     0.00000000000000     0.00000000000000     0.00000000000000     0.07072939960436     0.00000000000000
    5     0.00000000000000     0.00000000000000     0.00000000000000     0.00000000000000     0.07072939960436
    6     0.96945722711242     0.20123413106538    -0.00000000000000     0.00000000000000     0.00000000000000
    7     0.20123413106538     0.18300000000000     0.00000000000000     0.00000000000000     0.00000000000000
    8    -0.00000000000000     0.00000000000000     1.81750000000000     0.00000000000000     0.00000000000000
    9     0.00000000000000     0.00000000000000     0.00000000000000     1.81750000000000     0.00000000000000
   10     0.00000000000000     0.00000000000000     0.00000000000000     0.00000000000000     1.81750000000000



  ## Potential (Symmetry 0) ##
  Irrep: 1 Size: 10 x 10

                 1                   2                   3                   4                   5

    1    -1.81811461075076    -0.94749715497173    -0.12154782400710     0.00000000000000     0.00000000000000
    2    -0.94749715497173    -0.94845567321388    -0.11096709428132     0.00000000000000     0.00000000000000
    3    -0.12154782400710    -0.11096709428132    -1.40611241663501     0.00000000000000     0.00000000000000
    4     0.00000000000000     0.00000000000000     0.00000000000000    -1.31857867758026     0.00000000000000
    5     0.00000000000000     0.00000000000000     0.00000000000000     0.00000000000000    -1.31857867758026
    6    -0.41410648566758    -0.59124939424843    -0.51758490927454     0.00000000000000     0.00000000000000
    7    -0.59124939424843    -0.73688483244315    -0.30997671149337     0.00000000000000     0.00000000000000
    8     0.51758490927454     0.30997671149337     0.66700098059860     0.00000000000000     0.00000000000000
    9     0.00000000000000     0.00000000000000     0.00000000000000    -0.20601404803950     0.00000000000000
   10     0.00000000000000     0.00000000000000     0.00000000000000     0.00000000000000    -0.20601404803950

                 6                   7                   8                   9                  10

    1    -0.41410648566758    -0.59124939424843     0.51758490927454     0.00000000000000     0.00000000000000
    2    -0.59124939424843    -0.73688483244315     0.30997671149337     0.00000000000000     0.00000000000000
    3    -0.51758490927454    -0.30997671149337     0.66700098059860     0.00000000000000     0.00000000000000
    4     0.00000000000000     0.00000000000000     0.00000000000000    -0.20601404803950     0.00000000000000
    5     0.00000000000000     0.00000000000000     0.00000000000000     0.00000000000000    -0.20601404803950
    6    -1.81811461075076    -0.94749715497173     0.12154782400710     0.00000000000000     0.00000000000000
    7    -0.94749715497173    -0.94845567321388     0.11096709428132     0.00000000000000     0.00000000000000
    8     0.12154782400710     0.11096709428132    -1.40611241663501     0.00000000000000     0.00000000000000
    9     0.00000000000000     0.00000000000000     0.00000000000000    -1.31857867758026     0.00000000000000
   10     0.00000000000000     0.00000000000000     0.00000000000000     0.00000000000000    -1.31857867758026



  ## One Electron Ints (Symmetry 0) ##
  Irrep: 1 Size: 10 x 10

                 1                   2                   3                   4                   5

    1    -0.84865738363834    -0.74626302390635    -0.12154782400710     0.00000000000000     0.00000000000000
    2    -0.74626302390635    -0.76545567321388    -0.11096709428132     0.00000000000000     0.00000000000000
    3    -0.12154782400710    -0.11096709428132     0.41138758336499     0.00000000000000     0.00000000000000
    4     0.00000000000000     0.00000000000000     0.00000000000000     0.49892132241974     0.00000000000000
    5     0.00000000000000     0.00000000000000     0.00000000000000     0.00000000000000     0.49892132241974
    6    -0.39459004644392    -0.51066099224995    -0.36301406597973     0.00000000000000     0.00000000000000
    7    -0.51066099224995    -0.63112267066200    -0.23172128601327     0.00000000000000     0.00000000000000
    8     0.36301406597973     0.23172128601327     0.05410251979292     0.00000000000000     0.00000000000000
    9     0.00000000000000     0.00000000000000     0.00000000000000    -0.13528464843514     0.00000000000000
   10     0.00000000000000     0.00000000000000     0.00000000000000     0.00000000000000    -0.13528464843514

                 6                   7                   8                   9                  10

    1    -0.39459004644392    -0.51066099224995     0.36301406597973     0.00000000000000     0.00000000000000
    2    -0.51066099224995    -0.63112267066200     0.23172128601327     0.00000000000000     0.00000000000000
    3    -0.36301406597973    -0.23172128601327     0.05410251979292     0.00000000000000     0.00000000000000
    4     0.00000000000000     0.00000000000000     0.00000000000000    -0.13528464843514     0.00000000000000
    5     0.00000000000000     0.00000000000000     0.00000000000000     0.00000000000000    -0.13528464843514
    6    -0.84865738363834    -0.74626302390635     0.12154782400710     0.00000000000000     0.00000000000000
    7    -0.74626302390635    -0.76545567321388     0.11096709428132     0.00000000000000     0.00000000000000
    8     0.12154782400710     0.11096709428132     0.41138758336499     0.00000000000000     0.00000000000000
    9     0.00000000000000     0.00000000000000     0.00000000000000     0.49892132241974     0.00000000000000
   10     0.00000000000000     0.00000000000000     0.00000000000000     0.00000000000000     0.49892132241974




	There are 0 unique integrals

  ## Fock (Symmetry 0) ##
  Irrep: 1 Size: 10 x 10

                 1                   2                   3                   4                   5

    1    -0.51982632917082    -0.31702775222782     0.04608412742482     0.00000000000000     0.00000000000000
    2    -0.31702775222782    -0.33464659618307     0.16832654863822     0.00000000000000     0.00000000000000
    3     0.04608412742482     0.16832654863822     0.80851798755608     0.00000000000000     0.00000000000000
    4     0.00000000000000     0.00000000000000     0.00000000000000     0.53245505582641     0.00000000000000
    5     0.00000000000000     0.00000000000000     0.00000000000000     0.00000000000000     0.53245505582641
    6    -0.11405247156411    -0.10703815976689    -0.36555654949352     0.00000000000000     0.00000000000000
    7    -0.10703815976689    -0.14704450885515    -0.18488605354703    -0.00000000000000     0.00000000000000
    8     0.36555654949352     0.18488605354703     0.46803351212609     0.00000000000000     0.00000000000000
    9    -0.00000000000000    -0.00000000000000    -0.00000000000000    -0.21741111241682     0.00000000000000
   10     0.00000000000000     0.00000000000000     0.00000000000000     0.00000000000000    -0.21741111241682

                 6                   7                   8                   9                  10

    1    -0.11405247156411    -0.10703815976689     0.36555654949352    -0.00000000000000     0.00000000000000
    2    -0.10703815976689    -0.14704450885515     0.18488605354703    -0.00000000000000     0.00000000000000
    3    -0.36555654949352    -0.18488605354703     0.46803351212609    -0.00000000000000     0.00000000000000
    4     0.00000000000000    -0.00000000000000     0.00000000000000    -0.21741111241682     0.00000000000000
    5     0.00000000000000     0.00000000000000     0.00000000000000     0.00000000000000    -0.21741111241682
    6    -0.51982632917081    -0.31702775222782    -0.04608412742482    -0.00000000000000     0.00000000000000
    7    -0.31702775222782    -0.33464659618307    -0.16832654863822     0.00000000000000     0.00000000000000
    8    -0.04608412742482    -0.16832654863822     0.80851798755608    -0.00000000000000     0.00000000000000
    9    -0.00000000000000     0.00000000000000    -0.00000000000000     0.53245505582641     0.00000000000000
   10     0.00000000000000     0.00000000000000     0.00000000000000     0.00000000000000     0.53245505582641



  ## C (Symmetry 0) ##
  Irrep: 1 Size: 10 x 10

                 1                   2                   3                   4                   5

    1    -0.41930432155274    -0.41631277218488    -0.25265624596798    -0.04325595420204    -0.13195209089604
    2    -0.81319199692562    -0.46352444944380     0.89710332055895    -0.00317744843044    -0.10566558454256
    3     0.27968415553977    -0.73759972669934     0.36952818091200    -0.13623508463110    -0.21205589137122
    4     0.40091638588823    -0.58936497533467     0.03217804377529     0.05535881675484    -0.00000000000000
    5    -0.01079556051772    -0.01025478584337    -0.05331879436851     0.08682443617717     0.70822451694970
    6    -0.15397504112487     0.18346194314415     0.30014214772899     0.93563928919542    -0.06175603428704
    7     0.75212818757483     0.19055590321121    -1.31353399584319    -0.35427999975872     0.15756532901106
    8    -0.10688205055300    -0.30420018782185     0.17763150116920    -0.05255474337087    -0.82849623907169
    9    -0.03110500926586     0.04572575146347    -0.00249652642052    -0.71352676833187     0.00000000000000
   10     0.13914534052733     0.13217522757319     0.68723266260534    -0.00673625470760    -0.05494744275224

                 6                   7                   8                   9                  10

    1    -0.99318311006199    -0.79635990629107     0.06336754802631    -0.04325595420204     0.14255797573909
    2     1.16170821293136     0.84433912720373    -0.24570045156697    -0.00317744843044     0.10644465999632
    3     0.46318739341189    -0.61607601638123    -0.30900130718815    -0.13623508463110     0.24545923770436
    4    -0.40091638588823     0.58936497533467     0.03217804377529    -0.05535881675484     0.00000000000000
    5     0.01079556051772     0.01025478584337    -0.05331879436851     0.08682443617717     0.70822451694970
    6    -0.15912201599519     0.18005339575061    -0.30183983056908     0.93563928919541    -0.16765244227765
    7    -0.05609570420581    -0.34468460390928     1.04694869737289    -0.35427999975872    -0.07069976451358
    8     0.06363423845871    -0.19127699174823    -0.12138825438756    -0.05255474337087     0.84138208488020
    9     0.03110500926586    -0.04572575146347    -0.00249652642052     0.71352676833187    -0.00000000000000
   10    -0.13914534052733    -0.13217522757319     0.68723266260534    -0.00673625470760    -0.05494744275224




 In Bisection function HOMO = -1.037  LUMO =  1.428

 0.19517 = (-1.03750 + 1.42783)/2.0
 sum -  nocc_ = 3.26094066
 On Iteration in Bisection 0
 a: 3.26094  b:-0.49644

 -0.42117 = (-1.03750 + 0.19517)/2.0
 sum -  nocc_ = 1.01155501
 On Iteration in Bisection 1
 a: 1.01156  b:-0.49644

 -0.72933 = (-1.03750 + -0.42117)/2.0
 sum -  nocc_ = 0.30921437
 On Iteration in Bisection 2
 a: 0.30921  b:-0.49644

 -0.88342 = (-1.03750 + -0.72933)/2.0
 sum -  nocc_ = -0.04159317
 On Iteration in Bisection 3
 a: -0.04159  b:-0.49644

 -0.80637 = (-0.88342 + -0.72933)/2.0
 sum -  nocc_ = 0.09542825
 On Iteration in Bisection 4
 a: 0.09543  b:-0.04159

 -0.84490 = (-0.88342 + -0.80637)/2.0
 sum -  nocc_ = 0.02396364
 On Iteration in Bisection 5
 a: 0.02396  b:-0.04159

 -0.86416 = (-0.88342 + -0.84490)/2.0
 sum -  nocc_ = -0.00854720
 On Iteration in Bisection 6
 a: -0.00855  b:-0.04159

 -0.85453 = (-0.86416 + -0.84490)/2.0
 sum -  nocc_ = 0.00764801
 On Iteration in Bisection 7
 a: 0.00765  b:-0.00855

 -0.85934 = (-0.86416 + -0.85453)/2.0
 sum -  nocc_ = -0.00044874
 On Iteration in Bisection 8
 a: -0.00045  b:-0.00855

 -0.85693 = (-0.85934 + -0.85453)/2.0
 sum -  nocc_ = 0.00359786
 On Iteration in Bisection 9
 a: 0.00360  b:-0.00045

 -0.85814 = (-0.85934 + -0.85693)/2.0
 sum -  nocc_ = 0.00157436
 On Iteration in Bisection 10
 a: 0.00157  b:-0.00045

 -0.85874 = (-0.85934 + -0.85814)/2.0
 sum -  nocc_ = 0.00056279
 On Iteration in Bisection 11
 a: 0.00056  b:-0.00045

 -0.85904 = (-0.85934 + -0.85874)/2.0
 sum -  nocc_ = 0.00005703
 On Iteration in Bisection 12
 a: 0.00006  b:-0.00045

 -0.85919 = (-0.85934 + -0.85904)/2.0
 sum -  nocc_ = -0.00019586
 On Iteration in Bisection 13
 a: -0.00020  b:-0.00045

 -0.85911 = (-0.85919 + -0.85904)/2.0
 sum -  nocc_ = -0.00006942
 On Iteration in Bisection 14
 a: -0.00007  b:-0.00020

 -0.85908 = (-0.85911 + -0.85904)/2.0
 sum -  nocc_ = -0.00000619
 On Iteration in Bisection 15
 a: -0.00001  b:-0.00007

 -0.85906 = (-0.85908 + -0.85904)/2.0
 sum -  nocc_ = 0.00002542
 On Iteration in Bisection 16
 a: 0.00003  b:-0.00001

 -0.85907 = (-0.85908 + -0.85906)/2.0
 sum -  nocc_ = 0.00000961
 On Iteration in Bisection 17
 a: 0.00001  b:-0.00001

 -0.85907 = (-0.85908 + -0.85907)/2.0
 sum -  nocc_ = 0.00000171
 On Iteration in Bisection 18
 a: 0.00000  b:-0.00001

 -0.85907 = (-0.85908 + -0.85907)/2.0
 sum -  nocc_ = -0.00000224
 On Iteration in Bisection 19
 a: -0.00000  b:-0.00001

 -0.85907 = (-0.85907 + -0.85907)/2.0
 sum -  nocc_ = -0.00000027
 On Iteration in Bisection 20
 a: -0.00000  b:-0.00000

 -0.85907 = (-0.85907 + -0.85907)/2.0
 sum -  nocc_ = 0.00000072
 On Iteration in Bisection 21
 a: 0.00000  b:-0.00000

 -0.85907 = (-0.85907 + -0.85907)/2.0
 sum -  nocc_ = 0.00000023
 On Iteration in Bisection 22
 a: 0.00000  b:-0.00000

 -0.85907 = (-0.85907 + -0.85907)/2.0
 sum -  nocc_ = -0.00000002
 On Iteration in Bisection 23
 a: -0.00000  b:-0.00000

 -0.85907 = (-0.85907 + -0.85907)/2.0
 sum -  nocc_ = 0.00000010
 On Iteration in Bisection 24
 a: 0.00000  b:-0.00000

 -0.85907 = (-0.85907 + -0.85907)/2.0
 sum -  nocc_ = 0.00000004
 On Iteration in Bisection 25
 a: 0.00000  b:-0.00000

 -0.85907 = (-0.85907 + -0.85907)/2.0
 sum -  nocc_ = 0.00000001
 On Iteration in Bisection 26
 a: 0.00000  b:-0.00000

 -0.85907 = (-0.85907 + -0.85907)/2.0
 sum -  nocc_ = -0.00000001
 ef = -0.85907 sum = 1.00000 

 Iter: 0  T:    20000.000  val:-0.859073  sumni 0.00000
 ne = 1.0000

Nuc Replusion =       0.440981007158
 1st iteration =      -0.593861483584
 In Bisection function HOMO = -0.277  LUMO =  2.393

 1.05790 = (-0.27736 + 2.39315)/2.0
 sum -  nocc_ = 3.66316166
 On Iteration in Bisection 0
 a: 3.66316  b:-0.47547

 0.39027 = (-0.27736 + 1.05790)/2.0
 sum -  nocc_ = 1.40137788
 On Iteration in Bisection 1
 a: 1.40138  b:-0.47547

 0.05646 = (-0.27736 + 0.39027)/2.0
 sum -  nocc_ = 0.82849541
 On Iteration in Bisection 2
 a: 0.82850  b:-0.47547

 -0.11045 = (-0.27736 + 0.05646)/2.0
 sum -  nocc_ = 0.19286192
 On Iteration in Bisection 3
 a: 0.19286  b:-0.47547

 -0.19390 = (-0.27736 + -0.11045)/2.0
 sum -  nocc_ = -0.12534981
 On Iteration in Bisection 4
 a: -0.12535  b:-0.47547

 -0.15218 = (-0.19390 + -0.11045)/2.0
 sum -  nocc_ = 0.03194601
 On Iteration in Bisection 5
 a: 0.03195  b:-0.12535

 -0.17304 = (-0.19390 + -0.15218)/2.0
 sum -  nocc_ = -0.04601232
 On Iteration in Bisection 6
 a: -0.04601  b:-0.12535

 -0.16261 = (-0.17304 + -0.15218)/2.0
 sum -  nocc_ = -0.00700671
 On Iteration in Bisection 7
 a: -0.00701  b:-0.04601

 -0.15739 = (-0.16261 + -0.15218)/2.0
 sum -  nocc_ = 0.01245709
 On Iteration in Bisection 8
 a: 0.01246  b:-0.00701

 -0.16000 = (-0.16261 + -0.15739)/2.0
 sum -  nocc_ = 0.00272445
 On Iteration in Bisection 9
 a: 0.00272  b:-0.00701

 -0.16130 = (-0.16261 + -0.16000)/2.0
 sum -  nocc_ = -0.00214101
 On Iteration in Bisection 10
 a: -0.00214  b:-0.00701

 -0.16065 = (-0.16130 + -0.16000)/2.0
 sum -  nocc_ = 0.00029171
 On Iteration in Bisection 11
 a: 0.00029  b:-0.00214

 -0.16098 = (-0.16130 + -0.16065)/2.0
 sum -  nocc_ = -0.00092465
 On Iteration in Bisection 12
 a: -0.00092  b:-0.00214

 -0.16081 = (-0.16098 + -0.16065)/2.0
 sum -  nocc_ = -0.00031647
 On Iteration in Bisection 13
 a: -0.00032  b:-0.00092

 -0.16073 = (-0.16081 + -0.16065)/2.0
 sum -  nocc_ = -0.00001238
 On Iteration in Bisection 14
 a: -0.00001  b:-0.00032

 -0.16069 = (-0.16073 + -0.16065)/2.0
 sum -  nocc_ = 0.00013967
 On Iteration in Bisection 15
 a: 0.00014  b:-0.00001

 -0.16071 = (-0.16073 + -0.16069)/2.0
 sum -  nocc_ = 0.00006364
 On Iteration in Bisection 16
 a: 0.00006  b:-0.00001

 -0.16072 = (-0.16073 + -0.16071)/2.0
 sum -  nocc_ = 0.00002563
 On Iteration in Bisection 17
 a: 0.00003  b:-0.00001

 -0.16073 = (-0.16073 + -0.16072)/2.0
 sum -  nocc_ = 0.00000663
 On Iteration in Bisection 18
 a: 0.00001  b:-0.00001

 -0.16073 = (-0.16073 + -0.16073)/2.0
 sum -  nocc_ = -0.00000288
 On Iteration in Bisection 19
 a: -0.00000  b:-0.00001

 -0.16073 = (-0.16073 + -0.16073)/2.0
 sum -  nocc_ = 0.00000188
 On Iteration in Bisection 20
 a: 0.00000  b:-0.00000

 -0.16073 = (-0.16073 + -0.16073)/2.0
 sum -  nocc_ = -0.00000050
 On Iteration in Bisection 21
 a: -0.00000  b:-0.00000

 -0.16073 = (-0.16073 + -0.16073)/2.0
 sum -  nocc_ = 0.00000069
 On Iteration in Bisection 22
 a: 0.00000  b:-0.00000

 -0.16073 = (-0.16073 + -0.16073)/2.0
 sum -  nocc_ = 0.00000009
 On Iteration in Bisection 23
 a: 0.00000  b:-0.00000

 -0.16073 = (-0.16073 + -0.16073)/2.0
 sum -  nocc_ = -0.00000020
 On Iteration in Bisection 24
 a: -0.00000  b:-0.00000

 -0.16073 = (-0.16073 + -0.16073)/2.0
 sum -  nocc_ = -0.00000005
 On Iteration in Bisection 25
 a: -0.00000  b:-0.00000

 -0.16073 = (-0.16073 + -0.16073)/2.0
 sum -  nocc_ = 0.00000002
 On Iteration in Bisection 26
 a: 0.00000  b:-0.00000

 -0.16073 = (-0.16073 + -0.16073)/2.0
 sum -  nocc_ = -0.00000002
 On Iteration in Bisection 27
 a: -0.00000  b:-0.00000

 -0.16073 = (-0.16073 + -0.16073)/2.0
 sum -  nocc_ = 0.00000000
 ef = -0.16073 sum = 1.00000 

 Iter: 0  T:    20000.000  val:-0.160730  sumni 0.00000
 ne = 1.0000

 iter:1  failiter:1  energy:     -1.184494936232  total:     -0.743513929074  error:     -0.123382939444
 In Bisection function HOMO = -0.438  LUMO =  2.442

 1.00185 = (-0.43832 + 2.44203)/2.0
 sum -  nocc_ = 3.01827864
 On Iteration in Bisection 0
 a: 3.01828  b:-0.49944

 0.28176 = (-0.43832 + 1.00185)/2.0
 sum -  nocc_ = 0.99702134
 On Iteration in Bisection 1
 a: 0.99702  b:-0.49944

 -0.07828 = (-0.43832 + 0.28176)/2.0
 sum -  nocc_ = 0.13855909
 On Iteration in Bisection 2
 a: 0.13856  b:-0.49944

 -0.25830 = (-0.43832 + -0.07828)/2.0
 sum -  nocc_ = -0.04552288
 On Iteration in Bisection 3
 a: -0.04552  b:-0.49944

 -0.16829 = (-0.25830 + -0.07828)/2.0
 sum -  nocc_ = 0.02452415
 On Iteration in Bisection 4
 a: 0.02452  b:-0.04552

 -0.21330 = (-0.25830 + -0.16829)/2.0
 sum -  nocc_ = -0.00859591
 On Iteration in Bisection 5
 a: -0.00860  b:-0.04552

 -0.19079 = (-0.21330 + -0.16829)/2.0
 sum -  nocc_ = 0.00755099
 On Iteration in Bisection 6
 a: 0.00755  b:-0.00860

 -0.20205 = (-0.21330 + -0.19079)/2.0
 sum -  nocc_ = -0.00051544
 On Iteration in Bisection 7
 a: -0.00052  b:-0.00860

 -0.19642 = (-0.20205 + -0.19079)/2.0
 sum -  nocc_ = 0.00350582
 On Iteration in Bisection 8
 a: 0.00351  b:-0.00052

 -0.19923 = (-0.20205 + -0.19642)/2.0
 sum -  nocc_ = 0.00149391
 On Iteration in Bisection 9
 a: 0.00149  b:-0.00052

 -0.20064 = (-0.20205 + -0.19923)/2.0
 sum -  nocc_ = 0.00048913
 On Iteration in Bisection 10
 a: 0.00049  b:-0.00052

 -0.20134 = (-0.20205 + -0.20064)/2.0
 sum -  nocc_ = -0.00001316
 On Iteration in Bisection 11
 a: -0.00001  b:-0.00052

 -0.20099 = (-0.20134 + -0.20064)/2.0
 sum -  nocc_ = 0.00023798
 On Iteration in Bisection 12
 a: 0.00024  b:-0.00001

 -0.20117 = (-0.20134 + -0.20099)/2.0
 sum -  nocc_ = 0.00011241
 On Iteration in Bisection 13
 a: 0.00011  b:-0.00001

 -0.20125 = (-0.20134 + -0.20117)/2.0
 sum -  nocc_ = 0.00004963
 On Iteration in Bisection 14
 a: 0.00005  b:-0.00001

 -0.20130 = (-0.20134 + -0.20125)/2.0
 sum -  nocc_ = 0.00001824
 On Iteration in Bisection 15
 a: 0.00002  b:-0.00001

 -0.20132 = (-0.20134 + -0.20130)/2.0
 sum -  nocc_ = 0.00000254
 On Iteration in Bisection 16
 a: 0.00000  b:-0.00001

 -0.20133 = (-0.20134 + -0.20132)/2.0
 sum -  nocc_ = -0.00000531
 On Iteration in Bisection 17
 a: -0.00001  b:-0.00001

 -0.20133 = (-0.20133 + -0.20132)/2.0
 sum -  nocc_ = -0.00000138
 On Iteration in Bisection 18
 a: -0.00000  b:-0.00001

 -0.20132 = (-0.20133 + -0.20132)/2.0
 sum -  nocc_ = 0.00000058
 On Iteration in Bisection 19
 a: 0.00000  b:-0.00000

 -0.20132 = (-0.20133 + -0.20132)/2.0
 sum -  nocc_ = -0.00000040
 On Iteration in Bisection 20
 a: -0.00000  b:-0.00000

 -0.20132 = (-0.20132 + -0.20132)/2.0
 sum -  nocc_ = 0.00000009
 On Iteration in Bisection 21
 a: 0.00000  b:-0.00000

 -0.20132 = (-0.20132 + -0.20132)/2.0
 sum -  nocc_ = -0.00000016
 On Iteration in Bisection 22
 a: -0.00000  b:-0.00000

 -0.20132 = (-0.20132 + -0.20132)/2.0
 sum -  nocc_ = -0.00000003
 On Iteration in Bisection 23
 a: -0.00000  b:-0.00000

 -0.20132 = (-0.20132 + -0.20132)/2.0
 sum -  nocc_ = 0.00000003
 On Iteration in Bisection 24
 a: 0.00000  b:-0.00000

 -0.20132 = (-0.20132 + -0.20132)/2.0
 sum -  nocc_ = -0.00000000
 ef = -0.20132 sum = 1.00000 

 Iter: 1  T:    20000.000  val:-0.201323  sumni 0.00000
 ne = 1.0000

 iter:2  failiter:2  energy:     -1.433874756795  total:     -0.992893749637  error:     -0.249379820563
 In Bisection function HOMO = -0.482  LUMO =  2.454

 0.98596 = (-0.48176 + 2.45368)/2.0
 sum -  nocc_ = 2.99503100
 On Iteration in Bisection 0
 a: 2.99503  b:-0.49988

 0.25210 = (-0.48176 + 0.98596)/2.0
 sum -  nocc_ = 0.93309725
 On Iteration in Bisection 1
 a: 0.93310  b:-0.49988

 -0.11483 = (-0.48176 + 0.25210)/2.0
 sum -  nocc_ = 0.03416717
 On Iteration in Bisection 2
 a: 0.03417  b:-0.49988

 -0.29829 = (-0.48176 + -0.11483)/2.0
 sum -  nocc_ = -0.05018105
 On Iteration in Bisection 3
 a: -0.05018  b:-0.49988

 -0.20656 = (-0.29829 + -0.11483)/2.0
 sum -  nocc_ = -0.00380522
 On Iteration in Bisection 4
 a: -0.00381  b:-0.05018

 -0.16070 = (-0.20656 + -0.11483)/2.0
 sum -  nocc_ = 0.01213904
 On Iteration in Bisection 5
 a: 0.01214  b:-0.00381

 -0.18363 = (-0.20656 + -0.16070)/2.0
 sum -  nocc_ = 0.00392432
 On Iteration in Bisection 6
 a: 0.00392  b:-0.00381

 -0.19510 = (-0.20656 + -0.18363)/2.0
 sum -  nocc_ = 0.00005864
 On Iteration in Bisection 7
 a: 0.00006  b:-0.00381

 -0.20083 = (-0.20656 + -0.19510)/2.0
 sum -  nocc_ = -0.00186613
 On Iteration in Bisection 8
 a: -0.00187  b:-0.00381

 -0.19796 = (-0.20083 + -0.19510)/2.0
 sum -  nocc_ = -0.00090288
 On Iteration in Bisection 9
 a: -0.00090  b:-0.00187

 -0.19653 = (-0.19796 + -0.19510)/2.0
 sum -  nocc_ = -0.00042202
 On Iteration in Bisection 10
 a: -0.00042  b:-0.00090

 -0.19581 = (-0.19653 + -0.19510)/2.0
 sum -  nocc_ = -0.00018168
 On Iteration in Bisection 11
 a: -0.00018  b:-0.00042

 -0.19545 = (-0.19581 + -0.19510)/2.0
 sum -  nocc_ = -0.00006152
 On Iteration in Bisection 12
 a: -0.00006  b:-0.00018

 -0.19527 = (-0.19545 + -0.19510)/2.0
 sum -  nocc_ = -0.00000144
 On Iteration in Bisection 13
 a: -0.00000  b:-0.00006

 -0.19518 = (-0.19527 + -0.19510)/2.0
 sum -  nocc_ = 0.00002860
 On Iteration in Bisection 14
 a: 0.00003  b:-0.00000

 -0.19523 = (-0.19527 + -0.19518)/2.0
 sum -  nocc_ = 0.00001358
 On Iteration in Bisection 15
 a: 0.00001  b:-0.00000

 -0.19525 = (-0.19527 + -0.19523)/2.0
 sum -  nocc_ = 0.00000607
 On Iteration in Bisection 16
 a: 0.00001  b:-0.00000

 -0.19526 = (-0.19527 + -0.19525)/2.0
 sum -  nocc_ = 0.00000232
 On Iteration in Bisection 17
 a: 0.00000  b:-0.00000

 -0.19527 = (-0.19527 + -0.19526)/2.0
 sum -  nocc_ = 0.00000044
 On Iteration in Bisection 18
 a: 0.00000  b:-0.00000

 -0.19527 = (-0.19527 + -0.19527)/2.0
 sum -  nocc_ = -0.00000050
 On Iteration in Bisection 19
 a: -0.00000  b:-0.00000

 -0.19527 = (-0.19527 + -0.19527)/2.0
 sum -  nocc_ = -0.00000003
 On Iteration in Bisection 20
 a: -0.00000  b:-0.00000

 -0.19527 = (-0.19527 + -0.19527)/2.0
 sum -  nocc_ = 0.00000020
 On Iteration in Bisection 21
 a: 0.00000  b:-0.00000

 -0.19527 = (-0.19527 + -0.19527)/2.0
 sum -  nocc_ = 0.00000009
 On Iteration in Bisection 22
 a: 0.00000  b:-0.00000

 -0.19527 = (-0.19527 + -0.19527)/2.0
 sum -  nocc_ = 0.00000003
 On Iteration in Bisection 23
 a: 0.00000  b:-0.00000

 -0.19527 = (-0.19527 + -0.19527)/2.0
 sum -  nocc_ = -0.00000000
 ef = -0.19527 sum = 1.00000 

 Iter: 2  T:    20000.000  val:-0.195270  sumni 0.00000
 ne = 1.0000

 iter:3  failiter:3  energy:     -1.487969561962  total:     -1.046988554804  error:     -0.054094805167
 In Bisection function HOMO = -0.483  LUMO =  2.457

 0.98696 = (-0.48343 + 2.45736)/2.0
 sum -  nocc_ = 2.99405042
 On Iteration in Bisection 0
 a: 2.99405  b:-0.49989

 0.25176 = (-0.48343 + 0.98696)/2.0
 sum -  nocc_ = 0.92678512
 On Iteration in Bisection 1
 a: 0.92679  b:-0.49989

 -0.11584 = (-0.48343 + 0.25176)/2.0
 sum -  nocc_ = 0.03087535
 On Iteration in Bisection 2
 a: 0.03088  b:-0.49989

 -0.29964 = (-0.48343 + -0.11584)/2.0
 sum -  nocc_ = -0.05012617
 On Iteration in Bisection 3
 a: -0.05013  b:-0.49989

 -0.20774 = (-0.29964 + -0.11584)/2.0
 sum -  nocc_ = -0.00455187
 On Iteration in Bisection 4
 a: -0.00455  b:-0.05013

 -0.16179 = (-0.20774 + -0.11584)/2.0
 sum -  nocc_ = 0.01050288
 On Iteration in Bisection 5
 a: 0.01050  b:-0.00455

 -0.18476 = (-0.20774 + -0.16179)/2.0
 sum -  nocc_ = 0.00280098
 On Iteration in Bisection 6
 a: 0.00280  b:-0.00455

 -0.19625 = (-0.20774 + -0.18476)/2.0
 sum -  nocc_ = -0.00086210
 On Iteration in Bisection 7
 a: -0.00086  b:-0.00455

 -0.19050 = (-0.19625 + -0.18476)/2.0
 sum -  nocc_ = 0.00096571
 On Iteration in Bisection 8
 a: 0.00097  b:-0.00086

 -0.19338 = (-0.19625 + -0.19050)/2.0
 sum -  nocc_ = 0.00005175
 On Iteration in Bisection 9
 a: 0.00005  b:-0.00086

 -0.19481 = (-0.19625 + -0.19338)/2.0
 sum -  nocc_ = -0.00040507
 On Iteration in Bisection 10
 a: -0.00041  b:-0.00086

 -0.19409 = (-0.19481 + -0.19338)/2.0
 sum -  nocc_ = -0.00017665
 On Iteration in Bisection 11
 a: -0.00018  b:-0.00041

 -0.19373 = (-0.19409 + -0.19338)/2.0
 sum -  nocc_ = -0.00006245
 On Iteration in Bisection 12
 a: -0.00006  b:-0.00018

 -0.19356 = (-0.19373 + -0.19338)/2.0
 sum -  nocc_ = -0.00000535
 On Iteration in Bisection 13
 a: -0.00001  b:-0.00006

 -0.19347 = (-0.19356 + -0.19338)/2.0
 sum -  nocc_ = 0.00002320
 On Iteration in Bisection 14
 a: 0.00002  b:-0.00001

 -0.19351 = (-0.19356 + -0.19347)/2.0
 sum -  nocc_ = 0.00000893
 On Iteration in Bisection 15
 a: 0.00001  b:-0.00001

 -0.19353 = (-0.19356 + -0.19351)/2.0
 sum -  nocc_ = 0.00000179
 On Iteration in Bisection 16
 a: 0.00000  b:-0.00001

 -0.19354 = (-0.19356 + -0.19353)/2.0
 sum -  nocc_ = -0.00000178
 On Iteration in Bisection 17
 a: -0.00000  b:-0.00001

 -0.19354 = (-0.19354 + -0.19353)/2.0
 sum -  nocc_ = 0.00000001
 ef = -0.19354 sum = 1.00000 

 Iter: 3  T:    20000.000  val:-0.193538  sumni 0.00000
 ne = 1.0000

 iter:4  failiter:4  energy:     -1.490267420320  total:     -1.049286413162  error:     -0.002297858358
 In Bisection function HOMO = -0.483  LUMO =  2.458

 0.98715 = (-0.48339 + 2.45770)/2.0
 sum -  nocc_ = 2.99400495
 On Iteration in Bisection 0
 a: 2.99400  b:-0.49989

 0.25188 = (-0.48339 + 0.98715)/2.0
 sum -  nocc_ = 0.92652494
 On Iteration in Bisection 1
 a: 0.92652  b:-0.49989

 -0.11576 = (-0.48339 + 0.25188)/2.0
 sum -  nocc_ = 0.03074402
 On Iteration in Bisection 2
 a: 0.03074  b:-0.49989

 -0.29958 = (-0.48339 + -0.11576)/2.0
 sum -  nocc_ = -0.05011988
 On Iteration in Bisection 3
 a: -0.05012  b:-0.49989

 -0.20767 = (-0.29958 + -0.11576)/2.0
 sum -  nocc_ = -0.00458035
 On Iteration in Bisection 4
 a: -0.00458  b:-0.05012

 -0.16171 = (-0.20767 + -0.11576)/2.0
 sum -  nocc_ = 0.01043812
 On Iteration in Bisection 5
 a: 0.01044  b:-0.00458

 -0.18469 = (-0.20767 + -0.16171)/2.0
 sum -  nocc_ = 0.00275704
 On Iteration in Bisection 6
 a: 0.00276  b:-0.00458

 -0.19618 = (-0.20767 + -0.18469)/2.0
 sum -  nocc_ = -0.00089775
 On Iteration in Bisection 7
 a: -0.00090  b:-0.00458

 -0.19043 = (-0.19618 + -0.18469)/2.0
 sum -  nocc_ = 0.00092606
 On Iteration in Bisection 8
 a: 0.00093  b:-0.00090

 -0.19331 = (-0.19618 + -0.19043)/2.0
 sum -  nocc_ = 0.00001414
 On Iteration in Bisection 9
 a: 0.00001  b:-0.00090

 -0.19474 = (-0.19618 + -0.19331)/2.0
 sum -  nocc_ = -0.00044170
 On Iteration in Bisection 10
 a: -0.00044  b:-0.00090

 -0.19402 = (-0.19474 + -0.19331)/2.0
 sum -  nocc_ = -0.00021377
 On Iteration in Bisection 11
 a: -0.00021  b:-0.00044

 -0.19367 = (-0.19402 + -0.19331)/2.0
 sum -  nocc_ = -0.00009981
 On Iteration in Bisection 12
 a: -0.00010  b:-0.00021

 -0.19349 = (-0.19367 + -0.19331)/2.0
 sum -  nocc_ = -0.00004284
 On Iteration in Bisection 13
 a: -0.00004  b:-0.00010

 -0.19340 = (-0.19349 + -0.19331)/2.0
 sum -  nocc_ = -0.00001435
 On Iteration in Bisection 14
 a: -0.00001  b:-0.00004

 -0.19335 = (-0.19340 + -0.19331)/2.0
 sum -  nocc_ = -0.00000010
 On Iteration in Bisection 15
 a: -0.00000  b:-0.00001

 -0.19333 = (-0.19335 + -0.19331)/2.0
 sum -  nocc_ = 0.00000702
 On Iteration in Bisection 16
 a: 0.00001  b:-0.00000

 -0.19334 = (-0.19335 + -0.19333)/2.0
 sum -  nocc_ = 0.00000346
 On Iteration in Bisection 17
 a: 0.00000  b:-0.00000

 -0.19335 = (-0.19335 + -0.19334)/2.0
 sum -  nocc_ = 0.00000168
 On Iteration in Bisection 18
 a: 0.00000  b:-0.00000

 -0.19335 = (-0.19335 + -0.19335)/2.0
 sum -  nocc_ = 0.00000079
 On Iteration in Bisection 19
 a: 0.00000  b:-0.00000

 -0.19335 = (-0.19335 + -0.19335)/2.0
 sum -  nocc_ = 0.00000034
 On Iteration in Bisection 20
 a: 0.00000  b:-0.00000

 -0.19335 = (-0.19335 + -0.19335)/2.0
 sum -  nocc_ = 0.00000012
 On Iteration in Bisection 21
 a: 0.00000  b:-0.00000

 -0.19335 = (-0.19335 + -0.19335)/2.0
 sum -  nocc_ = 0.00000001
 ef = -0.19335 sum = 1.00000 

 Iter: 4  T:    20000.000  val:-0.193351  sumni 0.00000
 ne = 1.0000

 iter:5  failiter:5  energy:     -1.490269371522  total:     -1.049288364363  error:     -0.000001951201
 In Bisection function HOMO = -0.483  LUMO =  2.458

 0.98718 = (-0.48338 + 2.45774)/2.0
 sum -  nocc_ = 2.99400260
 On Iteration in Bisection 0
 a: 2.99400  b:-0.49989

 0.25190 = (-0.48338 + 0.98718)/2.0
 sum -  nocc_ = 0.92651778
 On Iteration in Bisection 1
 a: 0.92652  b:-0.49989

 -0.11574 = (-0.48338 + 0.25190)/2.0
 sum -  nocc_ = 0.03073947
 On Iteration in Bisection 2
 a: 0.03074  b:-0.49989

 -0.29956 = (-0.48338 + -0.11574)/2.0
 sum -  nocc_ = -0.05011917
 On Iteration in Bisection 3
 a: -0.05012  b:-0.49989

 -0.20765 = (-0.29956 + -0.11574)/2.0
 sum -  nocc_ = -0.00458120
 On Iteration in Bisection 4
 a: -0.00458  b:-0.05012

 -0.16169 = (-0.20765 + -0.11574)/2.0
 sum -  nocc_ = 0.01043592
 On Iteration in Bisection 5
 a: 0.01044  b:-0.00458

 -0.18467 = (-0.20765 + -0.16169)/2.0
 sum -  nocc_ = 0.00275560
 On Iteration in Bisection 6
 a: 0.00276  b:-0.00458

 -0.19616 = (-0.20765 + -0.18467)/2.0
 sum -  nocc_ = -0.00089888
 On Iteration in Bisection 7
 a: -0.00090  b:-0.00458

 -0.19041 = (-0.19616 + -0.18467)/2.0
 sum -  nocc_ = 0.00092478
 On Iteration in Bisection 8
 a: 0.00092  b:-0.00090

 -0.19329 = (-0.19616 + -0.19041)/2.0
 sum -  nocc_ = 0.00001294
 On Iteration in Bisection 9
 a: 0.00001  b:-0.00090

 -0.19472 = (-0.19616 + -0.19329)/2.0
 sum -  nocc_ = -0.00044286
 On Iteration in Bisection 10
 a: -0.00044  b:-0.00090

 -0.19400 = (-0.19472 + -0.19329)/2.0
 sum -  nocc_ = -0.00021495
 On Iteration in Bisection 11
 a: -0.00021  b:-0.00044

 -0.19365 = (-0.19400 + -0.19329)/2.0
 sum -  nocc_ = -0.00010100
 On Iteration in Bisection 12
 a: -0.00010  b:-0.00021

 -0.19347 = (-0.19365 + -0.19329)/2.0
 sum -  nocc_ = -0.00004403
 On Iteration in Bisection 13
 a: -0.00004  b:-0.00010

 -0.19338 = (-0.19347 + -0.19329)/2.0
 sum -  nocc_ = -0.00001555
 On Iteration in Bisection 14
 a: -0.00002  b:-0.00004

 -0.19333 = (-0.19338 + -0.19329)/2.0
 sum -  nocc_ = -0.00000130
 On Iteration in Bisection 15
 a: -0.00000  b:-0.00002

 -0.19331 = (-0.19333 + -0.19329)/2.0
 sum -  nocc_ = 0.00000582
 On Iteration in Bisection 16
 a: 0.00001  b:-0.00000

 -0.19332 = (-0.19333 + -0.19331)/2.0
 sum -  nocc_ = 0.00000226
 On Iteration in Bisection 17
 a: 0.00000  b:-0.00000

 -0.19333 = (-0.19333 + -0.19332)/2.0
 sum -  nocc_ = 0.00000048
 On Iteration in Bisection 18
 a: 0.00000  b:-0.00000

 -0.19333 = (-0.19333 + -0.19333)/2.0
 sum -  nocc_ = -0.00000041
 On Iteration in Bisection 19
 a: -0.00000  b:-0.00000

 -0.19333 = (-0.19333 + -0.19333)/2.0
 sum -  nocc_ = 0.00000003
 On Iteration in Bisection 20
 a: 0.00000  b:-0.00000

 -0.19333 = (-0.19333 + -0.19333)/2.0
 sum -  nocc_ = -0.00000019
 On Iteration in Bisection 21
 a: -0.00000  b:-0.00000

 -0.19333 = (-0.19333 + -0.19333)/2.0
 sum -  nocc_ = -0.00000008
 On Iteration in Bisection 22
 a: -0.00000  b:-0.00000

 -0.19333 = (-0.19333 + -0.19333)/2.0
 sum -  nocc_ = -0.00000002
 On Iteration in Bisection 23
 a: -0.00000  b:-0.00000

 -0.19333 = (-0.19333 + -0.19333)/2.0
 sum -  nocc_ = 0.00000000
 ef = -0.19333 sum = 1.00000 

 Iter: 5  T:    20000.000  val:-0.193328  sumni 0.00000
 ne = 1.0000

 iter:6  failiter:6  energy:     -1.490256116775  total:     -1.049275109617  error:      0.000013254746
 In Bisection function HOMO = -0.483  LUMO =  2.458

 0.98719 = (-0.48337 + 2.45775)/2.0
 sum -  nocc_ = 2.99400244
 On Iteration in Bisection 0
 a: 2.99400  b:-0.49989

 0.25191 = (-0.48337 + 0.98719)/2.0
 sum -  nocc_ = 0.92651805
 On Iteration in Bisection 1
 a: 0.92652  b:-0.49989

 -0.11573 = (-0.48337 + 0.25191)/2.0
 sum -  nocc_ = 0.03073944
 On Iteration in Bisection 2
 a: 0.03074  b:-0.49989

 -0.29955 = (-0.48337 + -0.11573)/2.0
 sum -  nocc_ = -0.05011908
 On Iteration in Bisection 3
 a: -0.05012  b:-0.49989

 -0.20764 = (-0.29955 + -0.11573)/2.0
 sum -  nocc_ = -0.00458118
 On Iteration in Bisection 4
 a: -0.00458  b:-0.05012

 -0.16169 = (-0.20764 + -0.11573)/2.0
 sum -  nocc_ = 0.01043591
 On Iteration in Bisection 5
 a: 0.01044  b:-0.00458

 -0.18467 = (-0.20764 + -0.16169)/2.0
 sum -  nocc_ = 0.00275560
 On Iteration in Bisection 6
 a: 0.00276  b:-0.00458

 -0.19616 = (-0.20764 + -0.18467)/2.0
 sum -  nocc_ = -0.00089887
 On Iteration in Bisection 7
 a: -0.00090  b:-0.00458

 -0.19041 = (-0.19616 + -0.18467)/2.0
 sum -  nocc_ = 0.00092479
 On Iteration in Bisection 8
 a: 0.00092  b:-0.00090

 -0.19328 = (-0.19616 + -0.19041)/2.0
 sum -  nocc_ = 0.00001295
 On Iteration in Bisection 9
 a: 0.00001  b:-0.00090

 -0.19472 = (-0.19616 + -0.19328)/2.0
 sum -  nocc_ = -0.00044285
 On Iteration in Bisection 10
 a: -0.00044  b:-0.00090

 -0.19400 = (-0.19472 + -0.19328)/2.0
 sum -  nocc_ = -0.00021494
 On Iteration in Bisection 11
 a: -0.00021  b:-0.00044

 -0.19364 = (-0.19400 + -0.19328)/2.0
 sum -  nocc_ = -0.00010099
 On Iteration in Bisection 12
 a: -0.00010  b:-0.00021

 -0.19346 = (-0.19364 + -0.19328)/2.0
 sum -  nocc_ = -0.00004402
 On Iteration in Bisection 13
 a: -0.00004  b:-0.00010

 -0.19337 = (-0.19346 + -0.19328)/2.0
 sum -  nocc_ = -0.00001554
 On Iteration in Bisection 14
 a: -0.00002  b:-0.00004

 -0.19333 = (-0.19337 + -0.19328)/2.0
 sum -  nocc_ = -0.00000130
 On Iteration in Bisection 15
 a: -0.00000  b:-0.00002

 -0.19331 = (-0.19333 + -0.19328)/2.0
 sum -  nocc_ = 0.00000583
 On Iteration in Bisection 16
 a: 0.00001  b:-0.00000

 -0.19332 = (-0.19333 + -0.19331)/2.0
 sum -  nocc_ = 0.00000227
 On Iteration in Bisection 17
 a: 0.00000  b:-0.00000

 -0.19332 = (-0.19333 + -0.19332)/2.0
 sum -  nocc_ = 0.00000049
 On Iteration in Bisection 18
 a: 0.00000  b:-0.00000

 -0.19333 = (-0.19333 + -0.19332)/2.0
 sum -  nocc_ = -0.00000040
 On Iteration in Bisection 19
 a: -0.00000  b:-0.00000

 -0.19332 = (-0.19333 + -0.19332)/2.0
 sum -  nocc_ = 0.00000004
 On Iteration in Bisection 20
 a: 0.00000  b:-0.00000

 -0.19333 = (-0.19333 + -0.19332)/2.0
 sum -  nocc_ = -0.00000018
 On Iteration in Bisection 21
 a: -0.00000  b:-0.00000

 -0.19332 = (-0.19333 + -0.19332)/2.0
 sum -  nocc_ = -0.00000007
 On Iteration in Bisection 22
 a: -0.00000  b:-0.00000

 -0.19332 = (-0.19332 + -0.19332)/2.0
 sum -  nocc_ = -0.00000002
 On Iteration in Bisection 23
 a: -0.00000  b:-0.00000

 -0.19332 = (-0.19332 + -0.19332)/2.0
 sum -  nocc_ = 0.00000001
 On Iteration in Bisection 24
 a: 0.00000  b:-0.00000

 -0.19332 = (-0.19332 + -0.19332)/2.0
 sum -  nocc_ = -0.00000000
 ef = -0.19332 sum = 1.00000 

 Iter: 6  T:    20000.000  val:-0.193324  sumni 0.00000
 ne = 1.0000

 iter:7  failiter:7  energy:     -1.490253639490  total:     -1.049272632332  error:      0.000002477285
 In Bisection function HOMO = -0.483  LUMO =  2.458

 0.98719 = (-0.48337 + 2.45775)/2.0
 sum -  nocc_ = 2.99400243
 On Iteration in Bisection 0
 a: 2.99400  b:-0.49989

 0.25191 = (-0.48337 + 0.98719)/2.0
 sum -  nocc_ = 0.92651814
 On Iteration in Bisection 1
 a: 0.92652  b:-0.49989

 -0.11573 = (-0.48337 + 0.25191)/2.0
 sum -  nocc_ = 0.03073946
 On Iteration in Bisection 2
 a: 0.03074  b:-0.49989

 -0.29955 = (-0.48337 + -0.11573)/2.0
 sum -  nocc_ = -0.05011907
 On Iteration in Bisection 3
 a: -0.05012  b:-0.49989

 -0.20764 = (-0.29955 + -0.11573)/2.0
 sum -  nocc_ = -0.00458117
 On Iteration in Bisection 4
 a: -0.00458  b:-0.05012

 -0.16169 = (-0.20764 + -0.11573)/2.0
 sum -  nocc_ = 0.01043592
 On Iteration in Bisection 5
 a: 0.01044  b:-0.00458

 -0.18467 = (-0.20764 + -0.16169)/2.0
 sum -  nocc_ = 0.00275561
 On Iteration in Bisection 6
 a: 0.00276  b:-0.00458

 -0.19616 = (-0.20764 + -0.18467)/2.0
 sum -  nocc_ = -0.00089886
 On Iteration in Bisection 7
 a: -0.00090  b:-0.00458

 -0.19041 = (-0.19616 + -0.18467)/2.0
 sum -  nocc_ = 0.00092480
 On Iteration in Bisection 8
 a: 0.00092  b:-0.00090

 -0.19328 = (-0.19616 + -0.19041)/2.0
 sum -  nocc_ = 0.00001296
 On Iteration in Bisection 9
 a: 0.00001  b:-0.00090

 -0.19472 = (-0.19616 + -0.19328)/2.0
 sum -  nocc_ = -0.00044284
 On Iteration in Bisection 10
 a: -0.00044  b:-0.00090

 -0.19400 = (-0.19472 + -0.19328)/2.0
 sum -  nocc_ = -0.00021493
 On Iteration in Bisection 11
 a: -0.00021  b:-0.00044

 -0.19364 = (-0.19400 + -0.19328)/2.0
 sum -  nocc_ = -0.00010099
 On Iteration in Bisection 12
 a: -0.00010  b:-0.00021

 -0.19346 = (-0.19364 + -0.19328)/2.0
 sum -  nocc_ = -0.00004401
 On Iteration in Bisection 13
 a: -0.00004  b:-0.00010

 -0.19337 = (-0.19346 + -0.19328)/2.0
 sum -  nocc_ = -0.00001553
 On Iteration in Bisection 14
 a: -0.00002  b:-0.00004

 -0.19333 = (-0.19337 + -0.19328)/2.0
 sum -  nocc_ = -0.00000129
 On Iteration in Bisection 15
 a: -0.00000  b:-0.00002

 -0.19331 = (-0.19333 + -0.19328)/2.0
 sum -  nocc_ = 0.00000583
 On Iteration in Bisection 16
 a: 0.00001  b:-0.00000

 -0.19332 = (-0.19333 + -0.19331)/2.0
 sum -  nocc_ = 0.00000227
 On Iteration in Bisection 17
 a: 0.00000  b:-0.00000

 -0.19332 = (-0.19333 + -0.19332)/2.0
 sum -  nocc_ = 0.00000049
 On Iteration in Bisection 18
 a: 0.00000  b:-0.00000

 -0.19333 = (-0.19333 + -0.19332)/2.0
 sum -  nocc_ = -0.00000040
 On Iteration in Bisection 19
 a: -0.00000  b:-0.00000

 -0.19332 = (-0.19333 + -0.19332)/2.0
 sum -  nocc_ = 0.00000005
 On Iteration in Bisection 20
 a: 0.00000  b:-0.00000

 -0.19332 = (-0.19333 + -0.19332)/2.0
 sum -  nocc_ = -0.00000017
 On Iteration in Bisection 21
 a: -0.00000  b:-0.00000

 -0.19332 = (-0.19332 + -0.19332)/2.0
 sum -  nocc_ = -0.00000006
 On Iteration in Bisection 22
 a: -0.00000  b:-0.00000

 -0.19332 = (-0.19332 + -0.19332)/2.0
 sum -  nocc_ = -0.00000001
 ef = -0.19332 sum = 1.00000 

 Iter: 7  T:    20000.000  val:-0.193324  sumni 0.00000
 ne = 1.0000

 iter:8  failiter:8  energy:     -1.490253262099  total:     -1.049272254941  error:      0.000000377391
 In Bisection function HOMO = -0.483  LUMO =  2.458

 0.98719 = (-0.48337 + 2.45775)/2.0
 sum -  nocc_ = 2.99400243
 On Iteration in Bisection 0
 a: 2.99400  b:-0.49989

 0.25191 = (-0.48337 + 0.98719)/2.0
 sum -  nocc_ = 0.92651815
 On Iteration in Bisection 1
 a: 0.92652  b:-0.49989

 -0.11573 = (-0.48337 + 0.25191)/2.0
 sum -  nocc_ = 0.03073946
 On Iteration in Bisection 2
 a: 0.03074  b:-0.49989

 -0.29955 = (-0.48337 + -0.11573)/2.0
 sum -  nocc_ = -0.05011907
 On Iteration in Bisection 3
 a: -0.05012  b:-0.49989

 -0.20764 = (-0.29955 + -0.11573)/2.0
 sum -  nocc_ = -0.00458117
 On Iteration in Bisection 4
 a: -0.00458  b:-0.05012

 -0.16169 = (-0.20764 + -0.11573)/2.0
 sum -  nocc_ = 0.01043592
 On Iteration in Bisection 5
 a: 0.01044  b:-0.00458

 -0.18467 = (-0.20764 + -0.16169)/2.0
 sum -  nocc_ = 0.00275561
 On Iteration in Bisection 6
 a: 0.00276  b:-0.00458

 -0.19616 = (-0.20764 + -0.18467)/2.0
 sum -  nocc_ = -0.00089886
 On Iteration in Bisection 7
 a: -0.00090  b:-0.00458

 -0.19041 = (-0.19616 + -0.18467)/2.0
 sum -  nocc_ = 0.00092480
 On Iteration in Bisection 8
 a: 0.00092  b:-0.00090

 -0.19328 = (-0.19616 + -0.19041)/2.0
 sum -  nocc_ = 0.00001296
 On Iteration in Bisection 9
 a: 0.00001  b:-0.00090

 -0.19472 = (-0.19616 + -0.19328)/2.0
 sum -  nocc_ = -0.00044284
 On Iteration in Bisection 10
 a: -0.00044  b:-0.00090

 -0.19400 = (-0.19472 + -0.19328)/2.0
 sum -  nocc_ = -0.00021493
 On Iteration in Bisection 11
 a: -0.00021  b:-0.00044

 -0.19364 = (-0.19400 + -0.19328)/2.0
 sum -  nocc_ = -0.00010098
 On Iteration in Bisection 12
 a: -0.00010  b:-0.00021

 -0.19346 = (-0.19364 + -0.19328)/2.0
 sum -  nocc_ = -0.00004401
 On Iteration in Bisection 13
 a: -0.00004  b:-0.00010

 -0.19337 = (-0.19346 + -0.19328)/2.0
 sum -  nocc_ = -0.00001553
 On Iteration in Bisection 14
 a: -0.00002  b:-0.00004

 -0.19333 = (-0.19337 + -0.19328)/2.0
 sum -  nocc_ = -0.00000129
 On Iteration in Bisection 15
 a: -0.00000  b:-0.00002

 -0.19331 = (-0.19333 + -0.19328)/2.0
 sum -  nocc_ = 0.00000584
 On Iteration in Bisection 16
 a: 0.00001  b:-0.00000

 -0.19332 = (-0.19333 + -0.19331)/2.0
 sum -  nocc_ = 0.00000228
 On Iteration in Bisection 17
 a: 0.00000  b:-0.00000

 -0.19332 = (-0.19333 + -0.19332)/2.0
 sum -  nocc_ = 0.00000050
 On Iteration in Bisection 18
 a: 0.00000  b:-0.00000

 -0.19333 = (-0.19333 + -0.19332)/2.0
 sum -  nocc_ = -0.00000040
 On Iteration in Bisection 19
 a: -0.00000  b:-0.00000

 -0.19332 = (-0.19333 + -0.19332)/2.0
 sum -  nocc_ = 0.00000005
 On Iteration in Bisection 20
 a: 0.00000  b:-0.00000

 -0.19332 = (-0.19333 + -0.19332)/2.0
 sum -  nocc_ = -0.00000017
 On Iteration in Bisection 21
 a: -0.00000  b:-0.00000

 -0.19332 = (-0.19332 + -0.19332)/2.0
 sum -  nocc_ = -0.00000006
 On Iteration in Bisection 22
 a: -0.00000  b:-0.00000

 -0.19332 = (-0.19332 + -0.19332)/2.0
 sum -  nocc_ = -0.00000001
 ef = -0.19332 sum = 1.00000 

 Iter: 8  T:    20000.000  val:-0.193324  sumni 0.00000
 ne = 1.0000

 iter:9  failiter:9  energy:     -1.490253212924  total:     -1.049272205766  error:      0.000000049176
 In Bisection function HOMO = -0.483  LUMO =  2.458

 0.98719 = (-0.48337 + 2.45775)/2.0
 sum -  nocc_ = 2.99400243
 On Iteration in Bisection 0
 a: 2.99400  b:-0.49989

 0.25191 = (-0.48337 + 0.98719)/2.0
 sum -  nocc_ = 0.92651816
 On Iteration in Bisection 1
 a: 0.92652  b:-0.49989

 -0.11573 = (-0.48337 + 0.25191)/2.0
 sum -  nocc_ = 0.03073946
 On Iteration in Bisection 2
 a: 0.03074  b:-0.49989

 -0.29955 = (-0.48337 + -0.11573)/2.0
 sum -  nocc_ = -0.05011907
 On Iteration in Bisection 3
 a: -0.05012  b:-0.49989

 -0.20764 = (-0.29955 + -0.11573)/2.0
 sum -  nocc_ = -0.00458117
 On Iteration in Bisection 4
 a: -0.00458  b:-0.05012

 -0.16169 = (-0.20764 + -0.11573)/2.0
 sum -  nocc_ = 0.01043592
 On Iteration in Bisection 5
 a: 0.01044  b:-0.00458

 -0.18467 = (-0.20764 + -0.16169)/2.0
 sum -  nocc_ = 0.00275561
 On Iteration in Bisection 6
 a: 0.00276  b:-0.00458

 -0.19616 = (-0.20764 + -0.18467)/2.0
 sum -  nocc_ = -0.00089886
 On Iteration in Bisection 7
 a: -0.00090  b:-0.00458

 -0.19041 = (-0.19616 + -0.18467)/2.0
 sum -  nocc_ = 0.00092480
 On Iteration in Bisection 8
 a: 0.00092  b:-0.00090

 -0.19328 = (-0.19616 + -0.19041)/2.0
 sum -  nocc_ = 0.00001296
 On Iteration in Bisection 9
 a: 0.00001  b:-0.00090

 -0.19472 = (-0.19616 + -0.19328)/2.0
 sum -  nocc_ = -0.00044284
 On Iteration in Bisection 10
 a: -0.00044  b:-0.00090

 -0.19400 = (-0.19472 + -0.19328)/2.0
 sum -  nocc_ = -0.00021493
 On Iteration in Bisection 11
 a: -0.00021  b:-0.00044

 -0.19364 = (-0.19400 + -0.19328)/2.0
 sum -  nocc_ = -0.00010098
 On Iteration in Bisection 12
 a: -0.00010  b:-0.00021

 -0.19346 = (-0.19364 + -0.19328)/2.0
 sum -  nocc_ = -0.00004401
 On Iteration in Bisection 13
 a: -0.00004  b:-0.00010

 -0.19337 = (-0.19346 + -0.19328)/2.0
 sum -  nocc_ = -0.00001553
 On Iteration in Bisection 14
 a: -0.00002  b:-0.00004

 -0.19333 = (-0.19337 + -0.19328)/2.0
 sum -  nocc_ = -0.00000128
 On Iteration in Bisection 15
 a: -0.00000  b:-0.00002

 -0.19331 = (-0.19333 + -0.19328)/2.0
 sum -  nocc_ = 0.00000584
 On Iteration in Bisection 16
 a: 0.00001  b:-0.00000

 -0.19332 = (-0.19333 + -0.19331)/2.0
 sum -  nocc_ = 0.00000228
 On Iteration in Bisection 17
 a: 0.00000  b:-0.00000

 -0.19332 = (-0.19333 + -0.19332)/2.0
 sum -  nocc_ = 0.00000050
 On Iteration in Bisection 18
 a: 0.00000  b:-0.00000

 -0.19333 = (-0.19333 + -0.19332)/2.0
 sum -  nocc_ = -0.00000039
 On Iteration in Bisection 19
 a: -0.00000  b:-0.00000

 -0.19332 = (-0.19333 + -0.19332)/2.0
 sum -  nocc_ = 0.00000005
 On Iteration in Bisection 20
 a: 0.00000  b:-0.00000

 -0.19332 = (-0.19333 + -0.19332)/2.0
 sum -  nocc_ = -0.00000017
 On Iteration in Bisection 21
 a: -0.00000  b:-0.00000

 -0.19332 = (-0.19332 + -0.19332)/2.0
 sum -  nocc_ = -0.00000006
 On Iteration in Bisection 22
 a: -0.00000  b:-0.00000

 -0.19332 = (-0.19332 + -0.19332)/2.0
 sum -  nocc_ = -0.00000001
 ef = -0.19332 sum = 1.00000 

 Iter: 9  T:    20000.000  val:-0.193324  sumni 0.00000
 ne = 1.0000

 iter:10  failiter:10  energy:     -1.490253204556  total:     -1.049272197398  error:      0.000000008367
 In Bisection function HOMO = -0.483  LUMO =  2.458

 0.98719 = (-0.48337 + 2.45775)/2.0
 sum -  nocc_ = 2.99400243
 On Iteration in Bisection 0
 a: 2.99400  b:-0.49989

 0.25191 = (-0.48337 + 0.98719)/2.0
 sum -  nocc_ = 0.92651816
 On Iteration in Bisection 1
 a: 0.92652  b:-0.49989

 -0.11573 = (-0.48337 + 0.25191)/2.0
 sum -  nocc_ = 0.03073946
 On Iteration in Bisection 2
 a: 0.03074  b:-0.49989

 -0.29955 = (-0.48337 + -0.11573)/2.0
 sum -  nocc_ = -0.05011907
 On Iteration in Bisection 3
 a: -0.05012  b:-0.49989

 -0.20764 = (-0.29955 + -0.11573)/2.0
 sum -  nocc_ = -0.00458117
 On Iteration in Bisection 4
 a: -0.00458  b:-0.05012

 -0.16169 = (-0.20764 + -0.11573)/2.0
 sum -  nocc_ = 0.01043592
 On Iteration in Bisection 5
 a: 0.01044  b:-0.00458

 -0.18467 = (-0.20764 + -0.16169)/2.0
 sum -  nocc_ = 0.00275561
 On Iteration in Bisection 6
 a: 0.00276  b:-0.00458

 -0.19616 = (-0.20764 + -0.18467)/2.0
 sum -  nocc_ = -0.00089886
 On Iteration in Bisection 7
 a: -0.00090  b:-0.00458

 -0.19041 = (-0.19616 + -0.18467)/2.0
 sum -  nocc_ = 0.00092480
 On Iteration in Bisection 8
 a: 0.00092  b:-0.00090

 -0.19328 = (-0.19616 + -0.19041)/2.0
 sum -  nocc_ = 0.00001296
 On Iteration in Bisection 9
 a: 0.00001  b:-0.00090

 -0.19472 = (-0.19616 + -0.19328)/2.0
 sum -  nocc_ = -0.00044284
 On Iteration in Bisection 10
 a: -0.00044  b:-0.00090

 -0.19400 = (-0.19472 + -0.19328)/2.0
 sum -  nocc_ = -0.00021493
 On Iteration in Bisection 11
 a: -0.00021  b:-0.00044

 -0.19364 = (-0.19400 + -0.19328)/2.0
 sum -  nocc_ = -0.00010098
 On Iteration in Bisection 12
 a: -0.00010  b:-0.00021

 -0.19346 = (-0.19364 + -0.19328)/2.0
 sum -  nocc_ = -0.00004401
 On Iteration in Bisection 13
 a: -0.00004  b:-0.00010

 -0.19337 = (-0.19346 + -0.19328)/2.0
 sum -  nocc_ = -0.00001553
 On Iteration in Bisection 14
 a: -0.00002  b:-0.00004

 -0.19333 = (-0.19337 + -0.19328)/2.0
 sum -  nocc_ = -0.00000128
 On Iteration in Bisection 15
 a: -0.00000  b:-0.00002

 -0.19331 = (-0.19333 + -0.19328)/2.0
 sum -  nocc_ = 0.00000584
 On Iteration in Bisection 16
 a: 0.00001  b:-0.00000

 -0.19332 = (-0.19333 + -0.19331)/2.0
 sum -  nocc_ = 0.00000228
 On Iteration in Bisection 17
 a: 0.00000  b:-0.00000

 -0.19332 = (-0.19333 + -0.19332)/2.0
 sum -  nocc_ = 0.00000050
 On Iteration in Bisection 18
 a: 0.00000  b:-0.00000

 -0.19333 = (-0.19333 + -0.19332)/2.0
 sum -  nocc_ = -0.00000039
 On Iteration in Bisection 19
 a: -0.00000  b:-0.00000

 -0.19332 = (-0.19333 + -0.19332)/2.0
 sum -  nocc_ = 0.00000005
 On Iteration in Bisection 20
 a: 0.00000  b:-0.00000

 -0.19332 = (-0.19333 + -0.19332)/2.0
 sum -  nocc_ = -0.00000017
 On Iteration in Bisection 21
 a: -0.00000  b:-0.00000

 -0.19332 = (-0.19332 + -0.19332)/2.0
 sum -  nocc_ = -0.00000006
 On Iteration in Bisection 22
 a: -0.00000  b:-0.00000

 -0.19332 = (-0.19332 + -0.19332)/2.0
 sum -  nocc_ = -0.00000001
 ef = -0.19332 sum = 1.00000 

 Iter: 10  T:    20000.000  val:-0.193324  sumni 0.00000
 ne = 1.0000

 iter:11  failiter:11  energy:     -1.490253203405  total:     -1.049272196247  error:      0.000000001151
 In Bisection function HOMO = -0.483  LUMO =  2.458

 0.98719 = (-0.48337 + 2.45775)/2.0
 sum -  nocc_ = 2.99400243
 On Iteration in Bisection 0
 a: 2.99400  b:-0.49989

 0.25191 = (-0.48337 + 0.98719)/2.0
 sum -  nocc_ = 0.92651816
 On Iteration in Bisection 1
 a: 0.92652  b:-0.49989

 -0.11573 = (-0.48337 + 0.25191)/2.0
 sum -  nocc_ = 0.03073946
 On Iteration in Bisection 2
 a: 0.03074  b:-0.49989

 -0.29955 = (-0.48337 + -0.11573)/2.0
 sum -  nocc_ = -0.05011907
 On Iteration in Bisection 3
 a: -0.05012  b:-0.49989

 -0.20764 = (-0.29955 + -0.11573)/2.0
 sum -  nocc_ = -0.00458117
 On Iteration in Bisection 4
 a: -0.00458  b:-0.05012

 -0.16169 = (-0.20764 + -0.11573)/2.0
 sum -  nocc_ = 0.01043592
 On Iteration in Bisection 5
 a: 0.01044  b:-0.00458

 -0.18467 = (-0.20764 + -0.16169)/2.0
 sum -  nocc_ = 0.00275561
 On Iteration in Bisection 6
 a: 0.00276  b:-0.00458

 -0.19616 = (-0.20764 + -0.18467)/2.0
 sum -  nocc_ = -0.00089886
 On Iteration in Bisection 7
 a: -0.00090  b:-0.00458

 -0.19041 = (-0.19616 + -0.18467)/2.0
 sum -  nocc_ = 0.00092480
 On Iteration in Bisection 8
 a: 0.00092  b:-0.00090

 -0.19328 = (-0.19616 + -0.19041)/2.0
 sum -  nocc_ = 0.00001296
 On Iteration in Bisection 9
 a: 0.00001  b:-0.00090

 -0.19472 = (-0.19616 + -0.19328)/2.0
 sum -  nocc_ = -0.00044284
 On Iteration in Bisection 10
 a: -0.00044  b:-0.00090

 -0.19400 = (-0.19472 + -0.19328)/2.0
 sum -  nocc_ = -0.00021493
 On Iteration in Bisection 11
 a: -0.00021  b:-0.00044

 -0.19364 = (-0.19400 + -0.19328)/2.0
 sum -  nocc_ = -0.00010098
 On Iteration in Bisection 12
 a: -0.00010  b:-0.00021

 -0.19346 = (-0.19364 + -0.19328)/2.0
 sum -  nocc_ = -0.00004401
 On Iteration in Bisection 13
 a: -0.00004  b:-0.00010

 -0.19337 = (-0.19346 + -0.19328)/2.0
 sum -  nocc_ = -0.00001553
 On Iteration in Bisection 14
 a: -0.00002  b:-0.00004

 -0.19333 = (-0.19337 + -0.19328)/2.0
 sum -  nocc_ = -0.00000128
 On Iteration in Bisection 15
 a: -0.00000  b:-0.00002

 -0.19331 = (-0.19333 + -0.19328)/2.0
 sum -  nocc_ = 0.00000584
 On Iteration in Bisection 16
 a: 0.00001  b:-0.00000

 -0.19332 = (-0.19333 + -0.19331)/2.0
 sum -  nocc_ = 0.00000228
 On Iteration in Bisection 17
 a: 0.00000  b:-0.00000

 -0.19332 = (-0.19333 + -0.19332)/2.0
 sum -  nocc_ = 0.00000050
 On Iteration in Bisection 18
 a: 0.00000  b:-0.00000

 -0.19333 = (-0.19333 + -0.19332)/2.0
 sum -  nocc_ = -0.00000039
 On Iteration in Bisection 19
 a: -0.00000  b:-0.00000

 -0.19332 = (-0.19333 + -0.19332)/2.0
 sum -  nocc_ = 0.00000005
 On Iteration in Bisection 20
 a: 0.00000  b:-0.00000

 -0.19332 = (-0.19333 + -0.19332)/2.0
 sum -  nocc_ = -0.00000017
 On Iteration in Bisection 21
 a: -0.00000  b:-0.00000

 -0.19332 = (-0.19332 + -0.19332)/2.0
 sum -  nocc_ = -0.00000006
 On Iteration in Bisection 22
 a: -0.00000  b:-0.00000

 -0.19332 = (-0.19332 + -0.19332)/2.0
 sum -  nocc_ = -0.00000001
 ef = -0.19332 sum = 1.00000 

 Iter: 11  T:    20000.000  val:-0.193324  sumni 0.00000
 ne = 1.0000

 iter:12  failiter:12  energy:     -1.490253203259  total:     -1.049272196101  error:      0.000000000147
 In Bisection function HOMO = -0.483  LUMO =  2.458

 0.98719 = (-0.48337 + 2.45775)/2.0
 sum -  nocc_ = 2.99400243
 On Iteration in Bisection 0
 a: 2.99400  b:-0.49989

 0.25191 = (-0.48337 + 0.98719)/2.0
 sum -  nocc_ = 0.92651816
 On Iteration in Bisection 1
 a: 0.92652  b:-0.49989

 -0.11573 = (-0.48337 + 0.25191)/2.0
 sum -  nocc_ = 0.03073946
 On Iteration in Bisection 2
 a: 0.03074  b:-0.49989

 -0.29955 = (-0.48337 + -0.11573)/2.0
 sum -  nocc_ = -0.05011907
 On Iteration in Bisection 3
 a: -0.05012  b:-0.49989

 -0.20764 = (-0.29955 + -0.11573)/2.0
 sum -  nocc_ = -0.00458117
 On Iteration in Bisection 4
 a: -0.00458  b:-0.05012

 -0.16169 = (-0.20764 + -0.11573)/2.0
 sum -  nocc_ = 0.01043592
 On Iteration in Bisection 5
 a: 0.01044  b:-0.00458

 -0.18467 = (-0.20764 + -0.16169)/2.0
 sum -  nocc_ = 0.00275561
 On Iteration in Bisection 6
 a: 0.00276  b:-0.00458

 -0.19616 = (-0.20764 + -0.18467)/2.0
 sum -  nocc_ = -0.00089886
 On Iteration in Bisection 7
 a: -0.00090  b:-0.00458

 -0.19041 = (-0.19616 + -0.18467)/2.0
 sum -  nocc_ = 0.00092480
 On Iteration in Bisection 8
 a: 0.00092  b:-0.00090

 -0.19328 = (-0.19616 + -0.19041)/2.0
 sum -  nocc_ = 0.00001296
 On Iteration in Bisection 9
 a: 0.00001  b:-0.00090

 -0.19472 = (-0.19616 + -0.19328)/2.0
 sum -  nocc_ = -0.00044284
 On Iteration in Bisection 10
 a: -0.00044  b:-0.00090

 -0.19400 = (-0.19472 + -0.19328)/2.0
 sum -  nocc_ = -0.00021493
 On Iteration in Bisection 11
 a: -0.00021  b:-0.00044

 -0.19364 = (-0.19400 + -0.19328)/2.0
 sum -  nocc_ = -0.00010098
 On Iteration in Bisection 12
 a: -0.00010  b:-0.00021

 -0.19346 = (-0.19364 + -0.19328)/2.0
 sum -  nocc_ = -0.00004401
 On Iteration in Bisection 13
 a: -0.00004  b:-0.00010

 -0.19337 = (-0.19346 + -0.19328)/2.0
 sum -  nocc_ = -0.00001553
 On Iteration in Bisection 14
 a: -0.00002  b:-0.00004

 -0.19333 = (-0.19337 + -0.19328)/2.0
 sum -  nocc_ = -0.00000128
 On Iteration in Bisection 15
 a: -0.00000  b:-0.00002

 -0.19331 = (-0.19333 + -0.19328)/2.0
 sum -  nocc_ = 0.00000584
 On Iteration in Bisection 16
 a: 0.00001  b:-0.00000

 -0.19332 = (-0.19333 + -0.19331)/2.0
 sum -  nocc_ = 0.00000228
 On Iteration in Bisection 17
 a: 0.00000  b:-0.00000

 -0.19332 = (-0.19333 + -0.19332)/2.0
 sum -  nocc_ = 0.00000050
 On Iteration in Bisection 18
 a: 0.00000  b:-0.00000

 -0.19333 = (-0.19333 + -0.19332)/2.0
 sum -  nocc_ = -0.00000039
 On Iteration in Bisection 19
 a: -0.00000  b:-0.00000

 -0.19332 = (-0.19333 + -0.19332)/2.0
 sum -  nocc_ = 0.00000005
 On Iteration in Bisection 20
 a: 0.00000  b:-0.00000

 -0.19332 = (-0.19333 + -0.19332)/2.0
 sum -  nocc_ = -0.00000017
 On Iteration in Bisection 21
 a: -0.00000  b:-0.00000

 -0.19332 = (-0.19332 + -0.19332)/2.0
 sum -  nocc_ = -0.00000006
 On Iteration in Bisection 22
 a: -0.00000  b:-0.00000

 -0.19332 = (-0.19332 + -0.19332)/2.0
 sum -  nocc_ = -0.00000001
 ef = -0.19332 sum = 1.00000 

 Iter: 12  T:    20000.000  val:-0.193324  sumni 0.00000
 ne = 1.0000

 iter:13  failiter:13  energy:     -1.490253203242  total:     -1.049272196083  error:      0.000000000017
 In Bisection function HOMO = -0.483  LUMO =  2.458

 0.98719 = (-0.48337 + 2.45775)/2.0
 sum -  nocc_ = 2.99400243
 On Iteration in Bisection 0
 a: 2.99400  b:-0.49989

 0.25191 = (-0.48337 + 0.98719)/2.0
 sum -  nocc_ = 0.92651816
 On Iteration in Bisection 1
 a: 0.92652  b:-0.49989

 -0.11573 = (-0.48337 + 0.25191)/2.0
 sum -  nocc_ = 0.03073946
 On Iteration in Bisection 2
 a: 0.03074  b:-0.49989

 -0.29955 = (-0.48337 + -0.11573)/2.0
 sum -  nocc_ = -0.05011907
 On Iteration in Bisection 3
 a: -0.05012  b:-0.49989

 -0.20764 = (-0.29955 + -0.11573)/2.0
 sum -  nocc_ = -0.00458117
 On Iteration in Bisection 4
 a: -0.00458  b:-0.05012

 -0.16169 = (-0.20764 + -0.11573)/2.0
 sum -  nocc_ = 0.01043592
 On Iteration in Bisection 5
 a: 0.01044  b:-0.00458

 -0.18467 = (-0.20764 + -0.16169)/2.0
 sum -  nocc_ = 0.00275561
 On Iteration in Bisection 6
 a: 0.00276  b:-0.00458

 -0.19616 = (-0.20764 + -0.18467)/2.0
 sum -  nocc_ = -0.00089886
 On Iteration in Bisection 7
 a: -0.00090  b:-0.00458

 -0.19041 = (-0.19616 + -0.18467)/2.0
 sum -  nocc_ = 0.00092480
 On Iteration in Bisection 8
 a: 0.00092  b:-0.00090

 -0.19328 = (-0.19616 + -0.19041)/2.0
 sum -  nocc_ = 0.00001296
 On Iteration in Bisection 9
 a: 0.00001  b:-0.00090

 -0.19472 = (-0.19616 + -0.19328)/2.0
 sum -  nocc_ = -0.00044284
 On Iteration in Bisection 10
 a: -0.00044  b:-0.00090

 -0.19400 = (-0.19472 + -0.19328)/2.0
 sum -  nocc_ = -0.00021493
 On Iteration in Bisection 11
 a: -0.00021  b:-0.00044

 -0.19364 = (-0.19400 + -0.19328)/2.0
 sum -  nocc_ = -0.00010098
 On Iteration in Bisection 12
 a: -0.00010  b:-0.00021

 -0.19346 = (-0.19364 + -0.19328)/2.0
 sum -  nocc_ = -0.00004401
 On Iteration in Bisection 13
 a: -0.00004  b:-0.00010

 -0.19337 = (-0.19346 + -0.19328)/2.0
 sum -  nocc_ = -0.00001553
 On Iteration in Bisection 14
 a: -0.00002  b:-0.00004

 -0.19333 = (-0.19337 + -0.19328)/2.0
 sum -  nocc_ = -0.00000128
 On Iteration in Bisection 15
 a: -0.00000  b:-0.00002

 -0.19331 = (-0.19333 + -0.19328)/2.0
 sum -  nocc_ = 0.00000584
 On Iteration in Bisection 16
 a: 0.00001  b:-0.00000

 -0.19332 = (-0.19333 + -0.19331)/2.0
 sum -  nocc_ = 0.00000228
 On Iteration in Bisection 17
 a: 0.00000  b:-0.00000

 -0.19332 = (-0.19333 + -0.19332)/2.0
 sum -  nocc_ = 0.00000050
 On Iteration in Bisection 18
 a: 0.00000  b:-0.00000

 -0.19333 = (-0.19333 + -0.19332)/2.0
 sum -  nocc_ = -0.00000039
 On Iteration in Bisection 19
 a: -0.00000  b:-0.00000

 -0.19332 = (-0.19333 + -0.19332)/2.0
 sum -  nocc_ = 0.00000005
 On Iteration in Bisection 20
 a: 0.00000  b:-0.00000

 -0.19332 = (-0.19333 + -0.19332)/2.0
 sum -  nocc_ = -0.00000017
 On Iteration in Bisection 21
 a: -0.00000  b:-0.00000

 -0.19332 = (-0.19332 + -0.19332)/2.0
 sum -  nocc_ = -0.00000006
 On Iteration in Bisection 22
 a: -0.00000  b:-0.00000

 -0.19332 = (-0.19332 + -0.19332)/2.0
 sum -  nocc_ = -0.00000001
 ef = -0.19332 sum = 1.00000 

 Iter: 13  T:    20000.000  val:-0.193324  sumni 0.00000
 ne = 1.0000

 iter:14  failiter:14  energy:     -1.490253203240  total:     -1.049272196082  error:      0.000000000002
 In Bisection function HOMO = -0.483  LUMO =  2.458

 0.98719 = (-0.48337 + 2.45775)/2.0
 sum -  nocc_ = 2.99400243
 On Iteration in Bisection 0
 a: 2.99400  b:-0.49989

 0.25191 = (-0.48337 + 0.98719)/2.0
 sum -  nocc_ = 0.92651816
 On Iteration in Bisection 1
 a: 0.92652  b:-0.49989

 -0.11573 = (-0.48337 + 0.25191)/2.0
 sum -  nocc_ = 0.03073946
 On Iteration in Bisection 2
 a: 0.03074  b:-0.49989

 -0.29955 = (-0.48337 + -0.11573)/2.0
 sum -  nocc_ = -0.05011907
 On Iteration in Bisection 3
 a: -0.05012  b:-0.49989

 -0.20764 = (-0.29955 + -0.11573)/2.0
 sum -  nocc_ = -0.00458117
 On Iteration in Bisection 4
 a: -0.00458  b:-0.05012

 -0.16169 = (-0.20764 + -0.11573)/2.0
 sum -  nocc_ = 0.01043592
 On Iteration in Bisection 5
 a: 0.01044  b:-0.00458

 -0.18467 = (-0.20764 + -0.16169)/2.0
 sum -  nocc_ = 0.00275561
 On Iteration in Bisection 6
 a: 0.00276  b:-0.00458

 -0.19616 = (-0.20764 + -0.18467)/2.0
 sum -  nocc_ = -0.00089886
 On Iteration in Bisection 7
 a: -0.00090  b:-0.00458

 -0.19041 = (-0.19616 + -0.18467)/2.0
 sum -  nocc_ = 0.00092480
 On Iteration in Bisection 8
 a: 0.00092  b:-0.00090

 -0.19328 = (-0.19616 + -0.19041)/2.0
 sum -  nocc_ = 0.00001296
 On Iteration in Bisection 9
 a: 0.00001  b:-0.00090

 -0.19472 = (-0.19616 + -0.19328)/2.0
 sum -  nocc_ = -0.00044284
 On Iteration in Bisection 10
 a: -0.00044  b:-0.00090

 -0.19400 = (-0.19472 + -0.19328)/2.0
 sum -  nocc_ = -0.00021493
 On Iteration in Bisection 11
 a: -0.00021  b:-0.00044

 -0.19364 = (-0.19400 + -0.19328)/2.0
 sum -  nocc_ = -0.00010098
 On Iteration in Bisection 12
 a: -0.00010  b:-0.00021

 -0.19346 = (-0.19364 + -0.19328)/2.0
 sum -  nocc_ = -0.00004401
 On Iteration in Bisection 13
 a: -0.00004  b:-0.00010

 -0.19337 = (-0.19346 + -0.19328)/2.0
 sum -  nocc_ = -0.00001553
 On Iteration in Bisection 14
 a: -0.00002  b:-0.00004

 -0.19333 = (-0.19337 + -0.19328)/2.0
 sum -  nocc_ = -0.00000128
 On Iteration in Bisection 15
 a: -0.00000  b:-0.00002

 -0.19331 = (-0.19333 + -0.19328)/2.0
 sum -  nocc_ = 0.00000584
 On Iteration in Bisection 16
 a: 0.00001  b:-0.00000

 -0.19332 = (-0.19333 + -0.19331)/2.0
 sum -  nocc_ = 0.00000228
 On Iteration in Bisection 17
 a: 0.00000  b:-0.00000

 -0.19332 = (-0.19333 + -0.19332)/2.0
 sum -  nocc_ = 0.00000050
 On Iteration in Bisection 18
 a: 0.00000  b:-0.00000

 -0.19333 = (-0.19333 + -0.19332)/2.0
 sum -  nocc_ = -0.00000039
 On Iteration in Bisection 19
 a: -0.00000  b:-0.00000

 -0.19332 = (-0.19333 + -0.19332)/2.0
 sum -  nocc_ = 0.00000005
 On Iteration in Bisection 20
 a: 0.00000  b:-0.00000

 -0.19332 = (-0.19333 + -0.19332)/2.0
 sum -  nocc_ = -0.00000017
 On Iteration in Bisection 21
 a: -0.00000  b:-0.00000

 -0.19332 = (-0.19332 + -0.19332)/2.0
 sum -  nocc_ = -0.00000006
 On Iteration in Bisection 22
 a: -0.00000  b:-0.00000

 -0.19332 = (-0.19332 + -0.19332)/2.0
 sum -  nocc_ = -0.00000001
 ef = -0.19332 sum = 1.00000 

 Iter: 14  T:    20000.000  val:-0.193324  sumni 0.00000
 ne = 1.0000

 iter:15  failiter:15  energy:     -1.490253203240  total:     -1.049272196082  error:      0.000000000000
 FTHFEnergy =    -1.049272
 FD_dis[0] = 0.98984718 with -0.483374 eig value
 FD_dis[1] = 0.01014749 with 0.096760 eig value
 FD_dis[2] = 0.00000484 with 0.581754 eig value
 FD_dis[3] = 0.00000048 with 0.727787 eig value
 FD_dis[4] = 0.00000000 with 1.313368 eig value
 FD_dis[5] = 0.00000000 with 1.313368 eig value
 FD_dis[6] = 0.00000000 with 1.469984 eig value
 FD_dis[7] = 0.00000000 with 1.751985 eig value
 FD_dis[8] = 0.00000000 with 1.751985 eig value
 FD_dis[9] = 0.00000000 with 2.457747 eig value
*** PSI4 exiting successfully. Buy a developer a beer!
