    -----------------------------------------------------------------------
          PSI4: An Open-Source Ab Initio Electronic Structure Package
                              PSI 4.0 Driver

               Git: Rev {master} 556e8139d3cfa1f96ccffe2cdf22cc56a185d2b2

    J. M. Turney, A. C. Simmonett, R. M. Parrish, E. G. Hohenstein,
    F. A. Evangelista, J. T. Fermann, B. J. Mintz, L. A. Burns, J. J. Wilke,
    M. L. Abrams, N. J. Russ, M. L. Leininger, C. L. Janssen, E. T. Seidl,
    W. D. Allen, H. F. Schaefer, R. A. King, E. F. Valeev, C. D. Sherrill,
    and T. D. Crawford, WIREs Comput. Mol. Sci. 2, 556-565 (2012)
    (doi: 10.1002/wcms.93)

                         Additional Contributions by
    A. E. DePrince, M. Saitow, U. Bozkaya, A. Yu. Sokolov
    -----------------------------------------------------------------------

    Process ID:  14573
    PSI4DATADIR: /Users/kevinhannon/Programs/psi4cmake/psi4/lib
    Memory level set to 256.000 MB

  ==> Input File <==

--------------------------------------------------------------------------

# PYTHONPATH must include directory above plugin directory.
#     Define either externally or here, then import plugin.
sys.path.insert(0, '/Users/kevinhannon/Programs/Quantum_Programs/Quantum-Programs/GS/')
import scf

molecule {
0 1
H
H 1 2.20000
symmetry c1
units angstrom
}


set {
  basis cc-pvdz
  reference rhf
  scf_type  pk
}

set scf {
  DO_FTHF true
  MAX_ITER 130
  MAX_TEMP 20000
  TEMP_INCREMENT 0
  bisect  true
  bisect_iter  40
}
energy('rhf')
energy('scf')


--------------------------------------------------------------------------

*** tstart() called on Kevins-MacBook-Pro.local
*** at Sun Apr 12 15:46:04 2015

/Users/kevinhannon/Programs/Quantum_Programs/Quantum-Programs/GS/scf/scf.so loaded.

*** tstart() called on Kevins-MacBook-Pro.local
*** at Sun Apr 12 15:46:04 2015


         ---------------------------------------------------------
                                   SCF
            by Justin Turney, Rob Parrish, and Andy Simmonett
                              RHF Reference
                        1 Threads,    256 MiB Core
         ---------------------------------------------------------

  ==> Geometry <==

    Molecular point group: c1
    Full point group: D_inf_h

    Geometry (in Angstrom), charge = 0, multiplicity = 1:

       Center              X                  Y                   Z       
    ------------   -----------------  -----------------  -----------------
           H          0.000000000000     0.000000000000    -1.100000000000
           H          0.000000000000     0.000000000000     1.100000000000

  Running in c1 symmetry.

  Rotational constants: A = ************  B =      6.91188  C =      6.91188 [cm^-1]
  Rotational constants: A = ************  B = 207212.85237  C = 207212.85237 [MHz]
  Nuclear repulsion =    0.240535094813636

  Charge       = 0
  Multiplicity = 1
  Electrons    = 2
  Nalpha       = 1
  Nbeta        = 1

  ==> Algorithm <==

  SCF Algorithm Type is PK.
  DIIS enabled.
  MOM disabled.
  Fractional occupation disabled.
  Guess Type is CORE.
  Energy threshold   = 1.00e-06
  Density threshold  = 1.00e-06
  Integral threshold = 0.00e+00

  ==> Primary Basis <==

  Basis Set: CC-PVDZ
    Number of shells: 6
    Number of basis function: 10
    Number of Cartesian functions: 10
    Spherical Harmonics?: true
    Max angular momentum: 1

  ==> Pre-Iterations <==

   -------------------------------------------------------
    Irrep   Nso     Nmo     Nalpha   Nbeta   Ndocc  Nsocc
   -------------------------------------------------------
     A         10      10       0       0       0       0
   -------------------------------------------------------
    Total      10      10       1       1       1       0
   -------------------------------------------------------

  Starting with a DF guess...

 OEINTS: Overlap, kinetic, potential, dipole, and quadrupole integrals
         stored in file 35.

  ==> Integral Setup <==

  ==> DFJK: Density-Fitted J/K Matrices <==

    J tasked:                  Yes
    K tasked:                  Yes
    wK tasked:                  No
    OpenMP threads:              1
    Integrals threads:           1
    Memory (MB):               183
    Algorithm:                Core
    Integral Cache:           NONE
    Schwarz Cutoff:          1E-12
    Fitting Condition:       1E-12

   => Auxiliary Basis Set <=

  Basis Set: 
    Number of shells: 18
    Number of basis function: 46
    Number of Cartesian functions: 50
    Spherical Harmonics?: true
    Max angular momentum: 2

  Minimum eigenvalue in the overlap matrix is 2.2957858869E-01.
  Using Symmetric Orthogonalization.
  SCF Guess: Core (One-Electron) Hamiltonian.

  ==> Iterations <==

                           Total Energy        Delta E     RMS |[F,P]|

   @DF-RHF iter   1:    -0.87755025207677   -8.77550e-01   1.32345e-02 
   @DF-RHF iter   2:    -0.89616168389319   -1.86114e-02   2.28418e-03 DIIS
   @DF-RHF iter   3:    -0.89675973151161   -5.98048e-04   6.16157e-05 DIIS
   @DF-RHF iter   4:    -0.89676007282063   -3.41309e-07   7.49100e-07 DIIS

  DF guess converged.

  ==> Integral Setup <==

 MINTS: Wrapper to libmints.
   by Justin Turney

   Calculation information:
      Number of atoms:                   2
      Number of AO shells:               6
      Number of SO shells:               6
      Number of primitives:             10
      Number of atomic orbitals:        10
      Number of basis functions:        10

      Number of irreps:                  1
      Integral cutoff                 0.00e+00
      Number of functions per irrep: [  10 ]

 OEINTS: Overlap, kinetic, potential, dipole, and quadrupole integrals
         stored in file 35.

      Computing two-electron integrals...done
      Computed 512 non-zero two-electron integrals.
        Stored in file 33.

	Batch   1 pq = [       0,      55] index = [             0,1540]
  ==> DiskJK: Disk-Based J/K Matrices <==

    J tasked:                  Yes
    K tasked:                  Yes
    wK tasked:                  No
    Memory (MB):               183
    Schwarz Cutoff:          1E-12

   @RHF iter   5:    -0.89674635395574    1.37189e-05   4.98107e-06 DIIS
   @RHF iter   6:    -0.89674635636924   -2.41351e-09   8.21413e-07 DIIS

  ==> Post-Iterations <==

    Orbital Energies (a.u.)
    -----------------------

    Doubly Occupied:                                                      

       1A     -0.369595  

    Virtual:                                                              

       2A     -0.058084     3A      0.653160     4A      0.657028  
       5A      1.404699     6A      1.461011     7A      1.461011  
       8A      1.483636     9A      1.483636    10A      1.608539  

    Final Occupation by Irrep:
              A 
    DOCC [     1 ]

  Energy converged.

  @RHF Final Energy:    -0.89674635636924

   => Energetics <=

    Nuclear Repulsion Energy =              0.2405350948136364
    One-Electron Energy =                  -1.5353707184118390
    Two-Electron Energy =                   0.3980892672289612
    DFT Exchange-Correlation Energy =       0.0000000000000000
    Empirical Dispersion Energy =           0.0000000000000000
    PCM Polarization Energy =               0.0000000000000000
    EFP Energy =                            0.0000000000000000
    Total Energy =                         -0.8967463563692414

    Alert: EFP and PCM quantities not currently incorporated into SCF psivars.

Properties will be evaluated at   0.000000,   0.000000,   0.000000 Bohr
  ==> Properties <==


Properties computed using the SCF density matrix

  Nuclear Dipole Moment: (a.u.)
     X:     0.0000      Y:     0.0000      Z:     0.0000

  Electronic Dipole Moment: (a.u.)
     X:    -0.0000      Y:    -0.0000      Z:    -0.0000

  Dipole Moment: (a.u.)
     X:    -0.0000      Y:    -0.0000      Z:    -0.0000     Total:     0.0000

  Dipole Moment: (Debye)
     X:    -0.0000      Y:    -0.0000      Z:    -0.0000     Total:     0.0000


  Saving occupied orbitals to File 180.

*** tstop() called on Kevins-MacBook-Pro.local at Sun Apr 12 15:46:04 2015
Module time:
	user time   =       0.20 seconds =       0.00 minutes
	system time =       0.01 seconds =       0.00 minutes
	total time  =          0 seconds =       0.00 minutes
Total time:
	user time   =       0.22 seconds =       0.00 minutes
	system time =       0.01 seconds =       0.00 minutes
	total time  =          0 seconds =       0.00 minutes

*** tstart() called on Kevins-MacBook-Pro.local
*** at Sun Apr 12 15:46:04 2015


         ---------------------------------------------------------
                                   SCF
            by Justin Turney, Rob Parrish, and Andy Simmonett
                              RHF Reference
                        1 Threads,    256 MiB Core
         ---------------------------------------------------------

  ==> Geometry <==

    Molecular point group: c1
    Full point group: D_inf_h

    Geometry (in Angstrom), charge = 0, multiplicity = 1:

       Center              X                  Y                   Z       
    ------------   -----------------  -----------------  -----------------
           H          0.000000000000     0.000000000000    -1.100000000000
           H          0.000000000000     0.000000000000     1.100000000000

  Running in c1 symmetry.

  Rotational constants: A = ************  B =      6.91188  C =      6.91188 [cm^-1]
  Rotational constants: A = ************  B = 207212.85237  C = 207212.85237 [MHz]
  Nuclear repulsion =    0.240535094813636

  Charge       = 0
  Multiplicity = 1
  Electrons    = 2
  Nalpha       = 1
  Nbeta        = 1

  ==> Algorithm <==

  SCF Algorithm Type is PK.
  DIIS enabled.
  MOM disabled.
  Fractional occupation disabled.
  Guess Type is CORE.
  Energy threshold   = 1.00e-08
  Density threshold  = 1.00e-08
  Integral threshold = 0.00e+00

  ==> Primary Basis <==

  Basis Set: CC-PVDZ
    Number of shells: 6
    Number of basis function: 10
    Number of Cartesian functions: 10
    Spherical Harmonics?: true
    Max angular momentum: 1

  ==> Pre-Iterations <==

   -------------------------------------------------------
    Irrep   Nso     Nmo     Nalpha   Nbeta   Ndocc  Nsocc
   -------------------------------------------------------
     A         10      10       0       0       0       0
   -------------------------------------------------------
    Total      10      10       1       1       1       0
   -------------------------------------------------------

  Starting with a DF guess...

 OEINTS: Overlap, kinetic, potential, dipole, and quadrupole integrals
         stored in file 35.

  ==> Integral Setup <==

  ==> DFJK: Density-Fitted J/K Matrices <==

    J tasked:                  Yes
    K tasked:                  Yes
    wK tasked:                  No
    OpenMP threads:              1
    Integrals threads:           1
    Memory (MB):               183
    Algorithm:                Core
    Integral Cache:           NONE
    Schwarz Cutoff:          1E-12
    Fitting Condition:       1E-12

   => Auxiliary Basis Set <=

  Basis Set: 
    Number of shells: 18
    Number of basis function: 46
    Number of Cartesian functions: 50
    Spherical Harmonics?: true
    Max angular momentum: 2

  Minimum eigenvalue in the overlap matrix is 2.2957858869E-01.
  Using Symmetric Orthogonalization.
  SCF Guess: Core (One-Electron) Hamiltonian.

  ==> Iterations <==

                           Total Energy        Delta E     RMS |[F,P]|

   @DF-RHF iter   1:    -0.87755025207677   -8.77550e-01   1.32345e-02 
   @DF-RHF iter   2:    -0.89616168389319   -1.86114e-02   2.28418e-03 DIIS
   @DF-RHF iter   3:    -0.89675973151161   -5.98048e-04   6.16157e-05 DIIS
   @DF-RHF iter   4:    -0.89676007282063   -3.41309e-07   7.49100e-07 DIIS
   @DF-RHF iter   5:    -0.89676007286322   -4.25904e-11   1.66521e-10 DIIS

  DF guess converged.

  ==> Integral Setup <==

 MINTS: Wrapper to libmints.
   by Justin Turney

   Calculation information:
      Number of atoms:                   2
      Number of AO shells:               6
      Number of SO shells:               6
      Number of primitives:             10
      Number of atomic orbitals:        10
      Number of basis functions:        10

      Number of irreps:                  1
      Integral cutoff                 0.00e+00
      Number of functions per irrep: [  10 ]

 OEINTS: Overlap, kinetic, potential, dipole, and quadrupole integrals
         stored in file 35.

      Computing two-electron integrals...done
      Computed 512 non-zero two-electron integrals.
        Stored in file 33.

	Batch   1 pq = [       0,      55] index = [             0,1540]
  ==> DiskJK: Disk-Based J/K Matrices <==

    J tasked:                  Yes
    K tasked:                  Yes
    wK tasked:                  No
    Memory (MB):               183
    Schwarz Cutoff:          1E-12

   @RHF iter   6:    -0.89674635395591    1.37189e-05   4.98091e-06 DIIS
   @RHF iter   7:    -0.89674635636925   -2.41334e-09   8.21385e-07 DIIS
   @RHF iter   8:    -0.89674635644266   -7.34164e-11   2.71715e-08 DIIS
   @RHF iter   9:    -0.89674635644273   -7.06102e-14   1.13693e-13 DIIS

  ==> Post-Iterations <==

    Orbital Energies (a.u.)
    -----------------------

    Doubly Occupied:                                                      

       1A     -0.369595  

    Virtual:                                                              

       2A     -0.058084     3A      0.653160     4A      0.657028  
       5A      1.404699     6A      1.461011     7A      1.461011  
       8A      1.483636     9A      1.483636    10A      1.608539  

    Final Occupation by Irrep:
              A 
    DOCC [     1 ]

  Energy converged.

  @RHF Final Energy:    -0.89674635644273

   => Energetics <=

    Nuclear Repulsion Energy =              0.2405350948136364
    One-Electron Energy =                  -1.5353728088586909
    Two-Electron Energy =                   0.3980913576023206
    DFT Exchange-Correlation Energy =       0.0000000000000000
    Empirical Dispersion Energy =           0.0000000000000000
    PCM Polarization Energy =               0.0000000000000000
    EFP Energy =                            0.0000000000000000
    Total Energy =                         -0.8967463564427338

    Alert: EFP and PCM quantities not currently incorporated into SCF psivars.

Properties will be evaluated at   0.000000,   0.000000,   0.000000 Bohr
  ==> Properties <==


Properties computed using the SCF density matrix

  Nuclear Dipole Moment: (a.u.)
     X:     0.0000      Y:     0.0000      Z:     0.0000

  Electronic Dipole Moment: (a.u.)
     X:    -0.0000      Y:     0.0000      Z:    -0.0000

  Dipole Moment: (a.u.)
     X:    -0.0000      Y:     0.0000      Z:    -0.0000     Total:     0.0000

  Dipole Moment: (Debye)
     X:    -0.0000      Y:     0.0000      Z:    -0.0000     Total:     0.0000


  Saving occupied orbitals to File 180.

*** tstop() called on Kevins-MacBook-Pro.local at Sun Apr 12 15:46:05 2015
Module time:
	user time   =       0.19 seconds =       0.00 minutes
	system time =       0.01 seconds =       0.00 minutes
	total time  =          1 seconds =       0.02 minutes
Total time:
	user time   =       0.42 seconds =       0.01 minutes
	system time =       0.02 seconds =       0.00 minutes
	total time  =          1 seconds =       0.02 minutes
Reading options from the SCF block
Calling plugin scf.so.
    Molecular point group: c1
    Full point group: D_inf_h

    Geometry (in Angstrom), charge = 0, multiplicity = 1:

       Center              X                  Y                   Z       
    ------------   -----------------  -----------------  -----------------
           H          0.000000000000     0.000000000000    -1.100000000000
           H          0.000000000000     0.000000000000     1.100000000000


    Nuclear repulsion energy:       0.24053509

  ## Overlap (Symmetry 0) ##
  Irrep: 1 Size: 10 x 10

                 1                   2                   3                   4                   5

    1     1.00000000000000     0.68486025149275     0.00000000000000     0.00000000000000     0.00000000000000
    2     0.68486025149275     1.00000000000000     0.00000000000000     0.00000000000000     0.00000000000000
    3     0.00000000000000     0.00000000000000     1.00000000000000     0.00000000000000     0.00000000000000
    4     0.00000000000000     0.00000000000000     0.00000000000000     1.00000000000000     0.00000000000000
    5     0.00000000000000     0.00000000000000     0.00000000000000     0.00000000000000     1.00000000000000
    6     0.01470279305541     0.12666746055273     0.01788531039862     0.00000000000000     0.00000000000000
    7     0.12666746055273     0.34842886457874     0.09840072086103     0.00000000000000     0.00000000000000
    8    -0.01788531039862    -0.09840072086103    -0.02160789803170     0.00000000000000     0.00000000000000
    9     0.00000000000000     0.00000000000000     0.00000000000000     0.00186831701363     0.00000000000000
   10     0.00000000000000     0.00000000000000     0.00000000000000     0.00000000000000     0.00186831701363

                 6                   7                   8                   9                  10

    1     0.01470279305541     0.12666746055273    -0.01788531039862     0.00000000000000     0.00000000000000
    2     0.12666746055273     0.34842886457874    -0.09840072086103     0.00000000000000     0.00000000000000
    3     0.01788531039862     0.09840072086103    -0.02160789803170     0.00000000000000     0.00000000000000
    4     0.00000000000000     0.00000000000000     0.00000000000000     0.00186831701363     0.00000000000000
    5     0.00000000000000     0.00000000000000     0.00000000000000     0.00000000000000     0.00186831701363
    6     1.00000000000000     0.68486025149275    -0.00000000000000     0.00000000000000     0.00000000000000
    7     0.68486025149275     1.00000000000000     0.00000000000000     0.00000000000000     0.00000000000000
    8    -0.00000000000000     0.00000000000000     1.00000000000000     0.00000000000000     0.00000000000000
    9     0.00000000000000     0.00000000000000     0.00000000000000     1.00000000000000     0.00000000000000
   10     0.00000000000000     0.00000000000000     0.00000000000000     0.00000000000000     1.00000000000000



  ## Kinetic (Symmetry 0) ##
  Irrep: 1 Size: 10 x 10

                 1                   2                   3                   4                   5

    1     0.96945722711242     0.20123413106538    -0.00000000000000     0.00000000000000     0.00000000000000
    2     0.20123413106538     0.18300000000000     0.00000000000000     0.00000000000000     0.00000000000000
    3    -0.00000000000000     0.00000000000000     1.81750000000000     0.00000000000000     0.00000000000000
    4     0.00000000000000     0.00000000000000     0.00000000000000     1.81750000000000     0.00000000000000
    5     0.00000000000000     0.00000000000000     0.00000000000000     0.00000000000000     1.81750000000000
    6    -0.01653804188010    -0.00463827541988    -0.02300804517927     0.00000000000000     0.00000000000000
    7    -0.00463827541988     0.01894505819662     0.01427589891732     0.00000000000000     0.00000000000000
    8     0.02300804517927    -0.01427589891732     0.04235527698746     0.00000000000000     0.00000000000000
    9     0.00000000000000     0.00000000000000     0.00000000000000    -0.00513793799670     0.00000000000000
   10     0.00000000000000     0.00000000000000     0.00000000000000     0.00000000000000    -0.00513793799670

                 6                   7                   8                   9                  10

    1    -0.01653804188010    -0.00463827541988     0.02300804517927     0.00000000000000     0.00000000000000
    2    -0.00463827541988     0.01894505819662    -0.01427589891732     0.00000000000000     0.00000000000000
    3    -0.02300804517927     0.01427589891732     0.04235527698746     0.00000000000000     0.00000000000000
    4     0.00000000000000     0.00000000000000     0.00000000000000    -0.00513793799670     0.00000000000000
    5     0.00000000000000     0.00000000000000     0.00000000000000     0.00000000000000    -0.00513793799670
    6     0.96945722711242     0.20123413106538     0.00000000000000     0.00000000000000     0.00000000000000
    7     0.20123413106538     0.18300000000000     0.00000000000000     0.00000000000000     0.00000000000000
    8     0.00000000000000     0.00000000000000     1.81750000000000     0.00000000000000     0.00000000000000
    9     0.00000000000000     0.00000000000000     0.00000000000000     1.81750000000000     0.00000000000000
   10     0.00000000000000     0.00000000000000     0.00000000000000     0.00000000000000     1.81750000000000



  ## Potential (Symmetry 0) ##
  Irrep: 1 Size: 10 x 10

                 1                   2                   3                   4                   5

    1    -1.61839687479924    -0.81443872834181    -0.03639936053385     0.00000000000000     0.00000000000000
    2    -0.81443872834181    -0.79702774717251    -0.03414441947120     0.00000000000000     0.00000000000000
    3    -0.03639936053385    -0.03414441947120    -1.15718725592913     0.00000000000000     0.00000000000000
    4     0.00000000000000     0.00000000000000     0.00000000000000    -1.14283030543909     0.00000000000000
    5     0.00000000000000     0.00000000000000     0.00000000000000     0.00000000000000    -1.14283030543909
    6    -0.01434750319837    -0.14130801572713    -0.01713858166925     0.00000000000000     0.00000000000000
    7    -0.14130801572713    -0.28613551097546    -0.09961970288747     0.00000000000000     0.00000000000000
    8     0.01713858166925     0.09961970288747     0.02050666943843     0.00000000000000     0.00000000000000
    9     0.00000000000000     0.00000000000000     0.00000000000000    -0.00165463125871     0.00000000000000
   10     0.00000000000000     0.00000000000000     0.00000000000000     0.00000000000000    -0.00165463125871

                 6                   7                   8                   9                  10

    1    -0.01434750319837    -0.14130801572713     0.01713858166925     0.00000000000000     0.00000000000000
    2    -0.14130801572713    -0.28613551097546     0.09961970288747     0.00000000000000     0.00000000000000
    3    -0.01713858166925    -0.09961970288747     0.02050666943843     0.00000000000000     0.00000000000000
    4     0.00000000000000     0.00000000000000     0.00000000000000    -0.00165463125871     0.00000000000000
    5     0.00000000000000     0.00000000000000     0.00000000000000     0.00000000000000    -0.00165463125871
    6    -1.61839687479924    -0.81443872834181     0.03639936053385     0.00000000000000     0.00000000000000
    7    -0.81443872834181    -0.79702774717251     0.03414441947120     0.00000000000000     0.00000000000000
    8     0.03639936053385     0.03414441947120    -1.15718725592913     0.00000000000000     0.00000000000000
    9     0.00000000000000     0.00000000000000     0.00000000000000    -1.14283030543909     0.00000000000000
   10     0.00000000000000     0.00000000000000     0.00000000000000     0.00000000000000    -1.14283030543909



  ## One Electron Ints (Symmetry 0) ##
  Irrep: 1 Size: 10 x 10

                 1                   2                   3                   4                   5

    1    -0.64893964768682    -0.61320459727643    -0.03639936053385     0.00000000000000     0.00000000000000
    2    -0.61320459727643    -0.61402774717251    -0.03414441947120     0.00000000000000     0.00000000000000
    3    -0.03639936053385    -0.03414441947120     0.66031274407087     0.00000000000000     0.00000000000000
    4     0.00000000000000     0.00000000000000     0.00000000000000     0.67466969456091     0.00000000000000
    5     0.00000000000000     0.00000000000000     0.00000000000000     0.00000000000000     0.67466969456091
    6    -0.03088554507847    -0.14594629114701    -0.04014662684852     0.00000000000000     0.00000000000000
    7    -0.14594629114701    -0.26719045277885    -0.08534380397015     0.00000000000000     0.00000000000000
    8     0.04014662684852     0.08534380397015     0.06286194642589     0.00000000000000     0.00000000000000
    9     0.00000000000000     0.00000000000000     0.00000000000000    -0.00679256925541     0.00000000000000
   10     0.00000000000000     0.00000000000000     0.00000000000000     0.00000000000000    -0.00679256925541

                 6                   7                   8                   9                  10

    1    -0.03088554507847    -0.14594629114701     0.04014662684852     0.00000000000000     0.00000000000000
    2    -0.14594629114701    -0.26719045277885     0.08534380397015     0.00000000000000     0.00000000000000
    3    -0.04014662684852    -0.08534380397015     0.06286194642589     0.00000000000000     0.00000000000000
    4     0.00000000000000     0.00000000000000     0.00000000000000    -0.00679256925541     0.00000000000000
    5     0.00000000000000     0.00000000000000     0.00000000000000     0.00000000000000    -0.00679256925541
    6    -0.64893964768682    -0.61320459727643     0.03639936053385     0.00000000000000     0.00000000000000
    7    -0.61320459727643    -0.61402774717251     0.03414441947120     0.00000000000000     0.00000000000000
    8     0.03639936053385     0.03414441947120     0.66031274407087     0.00000000000000     0.00000000000000
    9     0.00000000000000     0.00000000000000     0.00000000000000     0.67466969456091     0.00000000000000
   10     0.00000000000000     0.00000000000000     0.00000000000000     0.00000000000000     0.67466969456091




	There are 0 unique integrals

  ## Fock (Symmetry 0) ##
  Irrep: 1 Size: 10 x 10

                 1                   2                   3                   4                   5

    1    -0.41288478271968    -0.35941491724036    -0.04103848125408    -0.00000000000000     0.00000000000000
    2    -0.35941491724036    -0.31634801046531     0.01750499119695     0.00000000000000     0.00000000000000
    3    -0.04103848125408     0.01750499119695     0.67776195270641    -0.00000000000000     0.00000000000000
    4    -0.00000000000000     0.00000000000000    -0.00000000000000     0.67468474029388     0.00000000000000
    5     0.00000000000000     0.00000000000000     0.00000000000000     0.00000000000000     0.67468474029388
    6     0.01428072712569    -0.00803730009716     0.03045391015458    -0.00000000000000     0.00000000000000
    7    -0.00803730009716    -0.09247402388339    -0.12285450596311     0.00000000000000     0.00000000000000
    8    -0.03045391015458     0.12285450596311     0.08101015219404    -0.00000000000000     0.00000000000000
    9    -0.00000000000000     0.00000000000000     0.00000000000000    -0.00805309423454     0.00000000000000
   10     0.00000000000000     0.00000000000000     0.00000000000000     0.00000000000000    -0.00805309423454

                 6                   7                   8                   9                  10

    1     0.01428072712569    -0.00803730009716    -0.03045391015458    -0.00000000000000     0.00000000000000
    2    -0.00803730009716    -0.09247402388339     0.12285450596311     0.00000000000000     0.00000000000000
    3     0.03045391015458    -0.12285450596311     0.08101015219404     0.00000000000000     0.00000000000000
    4    -0.00000000000000     0.00000000000000    -0.00000000000000    -0.00805309423454     0.00000000000000
    5     0.00000000000000     0.00000000000000     0.00000000000000     0.00000000000000    -0.00805309423454
    6    -0.41288478271968    -0.35941491724036     0.04103848125408     0.00000000000000     0.00000000000000
    7    -0.35941491724036    -0.31634801046531    -0.01750499119695    -0.00000000000000     0.00000000000000
    8     0.04103848125408    -0.01750499119695     0.67776195270641     0.00000000000000     0.00000000000000
    9     0.00000000000000    -0.00000000000000     0.00000000000000     0.67468474029388     0.00000000000000
   10     0.00000000000000     0.00000000000000     0.00000000000000     0.00000000000000     0.67468474029388



  ## C (Symmetry 0) ##
  Irrep: 1 Size: 10 x 10

                 1                   2                   3                   4                   5

    1    -0.93909987767023    -0.87612835660081    -0.04712569358629    -0.03813583499745     0.01615257151195
    2     1.04752885097287     0.84519934748447     0.00258282430023     0.19187996993331    -0.09022410981505
    3     0.52479235048373    -0.47832142768954    -0.07243882432737     0.05208827481760    -0.02957802922769
    4    -0.42054269758872     0.55019094641089    -0.14295128881774     0.00066055125595     0.00000000000000
    5    -0.02212605912545     0.08078933863744    -0.70149732334865    -0.00000000000000     0.00000000000000
    6     0.04204104263039     0.00565270109312    -0.00309463200215     0.37831140480926    -0.91472418728584
    7    -0.21677480568129    -0.10719115107033     0.00668715099477    -0.96970250467545     0.39398288099183
    8     0.06229166728487     0.03996805029827    -0.00067462941050     0.01567147618257    -0.71527443337604
    9     0.00039285388126    -0.00051396600148     0.00013353927904    -0.70710770677624    -0.00000000000000
   10     0.07581419916477    -0.12203552147350    -0.69171852158151     0.00000000000000     0.00000000000000

                 6                   7                   8                   9                  10

    1    -0.33626600334198    -0.41911756466963     0.06163541639055    -0.03813583499745    -0.02502551095089
    2    -0.49767837885948    -0.32622848674327    -0.03977471004984     0.19187996993330     0.01395243982015
    3     0.49982007477783    -0.49725301063914     0.07183776188925     0.05208827481760    -0.01160005323516
    4     0.42054269758872    -0.55019094641089    -0.14295128881774    -0.00066055125595     0.00000000000000
    5    -0.02198445253687     0.08056147820082     0.70279089941617     0.00000000000000     0.00000000000000
    6    -0.01872787120621    -0.04041645762529     0.00163197349466     0.37831140480926    -0.90625835953376
    7     0.08898321326927     0.12460523650927     0.00067219672785    -0.96970250467544     0.36263992862669
    8    -0.02071026212088    -0.02295604721003    -0.00132315976357     0.01567147618257     0.70680860562396
    9    -0.00039285388126     0.00051396600148     0.00013353927904     0.70710770677625    -0.00000000000000
   10    -0.07577299291910     0.12188479410384    -0.69303035051560    -0.00000000000000     0.00000000000000




 In Bisection function HOMO = -0.776  LUMO =  0.791

 0.00757 = (-0.77617 + 0.79132)/2.0
 sum -  nocc_ = 2.18730900
 On Iteration in Bisection 0
 a: 2.18731  b:-0.29113

 -0.38430 = (-0.77617 + 0.00757)/2.0
 sum -  nocc_ = 0.99680329
 On Iteration in Bisection 1
 a: 0.99680  b:-0.29113

 -0.58024 = (-0.77617 + -0.38430)/2.0
 sum -  nocc_ = 0.81039009
 On Iteration in Bisection 2
 a: 0.81039  b:-0.29113

 -0.67820 = (-0.77617 + -0.58024)/2.0
 sum -  nocc_ = 0.37808986
 On Iteration in Bisection 3
 a: 0.37809  b:-0.29113

 -0.72719 = (-0.77617 + -0.67820)/2.0
 sum -  nocc_ = 0.04821935
 On Iteration in Bisection 4
 a: 0.04822  b:-0.29113

 -0.75168 = (-0.77617 + -0.72719)/2.0
 sum -  nocc_ = -0.12461409
 On Iteration in Bisection 5
 a: -0.12461  b:-0.29113

 -0.73943 = (-0.75168 + -0.72719)/2.0
 sum -  nocc_ = -0.03844528
 On Iteration in Bisection 6
 a: -0.03845  b:-0.12461

 -0.73331 = (-0.73943 + -0.72719)/2.0
 sum -  nocc_ = 0.00489476
 On Iteration in Bisection 7
 a: 0.00489  b:-0.03845

 -0.73637 = (-0.73943 + -0.73331)/2.0
 sum -  nocc_ = -0.01678207
 On Iteration in Bisection 8
 a: -0.01678  b:-0.03845

 -0.73484 = (-0.73637 + -0.73331)/2.0
 sum -  nocc_ = -0.00594426
 On Iteration in Bisection 9
 a: -0.00594  b:-0.01678

 -0.73408 = (-0.73484 + -0.73331)/2.0
 sum -  nocc_ = -0.00052477
 On Iteration in Bisection 10
 a: -0.00052  b:-0.00594

 -0.73369 = (-0.73408 + -0.73331)/2.0
 sum -  nocc_ = 0.00218501
 On Iteration in Bisection 11
 a: 0.00219  b:-0.00052

 -0.73389 = (-0.73408 + -0.73369)/2.0
 sum -  nocc_ = 0.00083012
 On Iteration in Bisection 12
 a: 0.00083  b:-0.00052

 -0.73398 = (-0.73408 + -0.73389)/2.0
 sum -  nocc_ = 0.00015268
 On Iteration in Bisection 13
 a: 0.00015  b:-0.00052

 -0.73403 = (-0.73408 + -0.73398)/2.0
 sum -  nocc_ = -0.00018604
 On Iteration in Bisection 14
 a: -0.00019  b:-0.00052

 -0.73401 = (-0.73403 + -0.73398)/2.0
 sum -  nocc_ = -0.00001668
 On Iteration in Bisection 15
 a: -0.00002  b:-0.00019

 -0.73399 = (-0.73401 + -0.73398)/2.0
 sum -  nocc_ = 0.00006800
 On Iteration in Bisection 16
 a: 0.00007  b:-0.00002

 -0.73400 = (-0.73401 + -0.73399)/2.0
 sum -  nocc_ = 0.00002566
 On Iteration in Bisection 17
 a: 0.00003  b:-0.00002

 -0.73400 = (-0.73401 + -0.73400)/2.0
 sum -  nocc_ = 0.00000449
 On Iteration in Bisection 18
 a: 0.00000  b:-0.00002

 -0.73400 = (-0.73401 + -0.73400)/2.0
 sum -  nocc_ = -0.00000610
 On Iteration in Bisection 19
 a: -0.00001  b:-0.00002

 -0.73400 = (-0.73400 + -0.73400)/2.0
 sum -  nocc_ = -0.00000081
 On Iteration in Bisection 20
 a: -0.00000  b:-0.00001

 -0.73400 = (-0.73400 + -0.73400)/2.0
 sum -  nocc_ = 0.00000184
 On Iteration in Bisection 21
 a: 0.00000  b:-0.00000

 -0.73400 = (-0.73400 + -0.73400)/2.0
 sum -  nocc_ = 0.00000052
 On Iteration in Bisection 22
 a: 0.00000  b:-0.00000

 -0.73400 = (-0.73400 + -0.73400)/2.0
 sum -  nocc_ = -0.00000014
 On Iteration in Bisection 23
 a: -0.00000  b:-0.00000

 -0.73400 = (-0.73400 + -0.73400)/2.0
 sum -  nocc_ = 0.00000019
 On Iteration in Bisection 24
 a: 0.00000  b:-0.00000

 -0.73400 = (-0.73400 + -0.73400)/2.0
 sum -  nocc_ = 0.00000002
 On Iteration in Bisection 25
 a: 0.00000  b:-0.00000

 -0.73400 = (-0.73400 + -0.73400)/2.0
 sum -  nocc_ = -0.00000006
 On Iteration in Bisection 26
 a: -0.00000  b:-0.00000

 -0.73400 = (-0.73400 + -0.73400)/2.0
 sum -  nocc_ = -0.00000002
 On Iteration in Bisection 27
 a: -0.00000  b:-0.00000

 -0.73400 = (-0.73400 + -0.73400)/2.0
 sum -  nocc_ = 0.00000000
 ef = -0.73400 sum = 1.00000 

 Iter: 0  T:    20000.000  val:-0.734003  sumni 0.00000
 ne = 1.0000

Nuc Replusion =       0.240535094814
 1st iteration =       0.665840678435
 In Bisection function HOMO = -0.276  LUMO =  1.860

 0.79219 = (-0.27589 + 1.86026)/2.0
 sum -  nocc_ = 2.45474317
 On Iteration in Bisection 0
 a: 2.45474  b:-0.49958

 0.25815 = (-0.27589 + 0.79219)/2.0
 sum -  nocc_ = 0.71968219
 On Iteration in Bisection 1
 a: 0.71968  b:-0.49958

 -0.00887 = (-0.27589 + 0.25815)/2.0
 sum -  nocc_ = 0.01323143
 On Iteration in Bisection 2
 a: 0.01323  b:-0.49958

 -0.14238 = (-0.27589 + -0.00887)/2.0
 sum -  nocc_ = -0.10486303
 On Iteration in Bisection 3
 a: -0.10486  b:-0.49958

 -0.07563 = (-0.14238 + -0.00887)/2.0
 sum -  nocc_ = -0.03077268
 On Iteration in Bisection 4
 a: -0.03077  b:-0.10486

 -0.04225 = (-0.07563 + -0.00887)/2.0
 sum -  nocc_ = -0.00781443
 On Iteration in Bisection 5
 a: -0.00781  b:-0.03077

 -0.02556 = (-0.04225 + -0.00887)/2.0
 sum -  nocc_ = 0.00262427
 On Iteration in Bisection 6
 a: 0.00262  b:-0.00781

 -0.03390 = (-0.04225 + -0.02556)/2.0
 sum -  nocc_ = -0.00257605
 On Iteration in Bisection 7
 a: -0.00258  b:-0.00781

 -0.02973 = (-0.03390 + -0.02556)/2.0
 sum -  nocc_ = 0.00002387
 On Iteration in Bisection 8
 a: 0.00002  b:-0.00258

 -0.03182 = (-0.03390 + -0.02973)/2.0
 sum -  nocc_ = -0.00127553
 On Iteration in Bisection 9
 a: -0.00128  b:-0.00258

 -0.03078 = (-0.03182 + -0.02973)/2.0
 sum -  nocc_ = -0.00062577
 On Iteration in Bisection 10
 a: -0.00063  b:-0.00128

 -0.03025 = (-0.03078 + -0.02973)/2.0
 sum -  nocc_ = -0.00030095
 On Iteration in Bisection 11
 a: -0.00030  b:-0.00063

 -0.02999 = (-0.03025 + -0.02973)/2.0
 sum -  nocc_ = -0.00013854
 On Iteration in Bisection 12
 a: -0.00014  b:-0.00030

 -0.02986 = (-0.02999 + -0.02973)/2.0
 sum -  nocc_ = -0.00005734
 On Iteration in Bisection 13
 a: -0.00006  b:-0.00014

 -0.02980 = (-0.02986 + -0.02973)/2.0
 sum -  nocc_ = -0.00001674
 On Iteration in Bisection 14
 a: -0.00002  b:-0.00006

 -0.02977 = (-0.02980 + -0.02973)/2.0
 sum -  nocc_ = 0.00000356
 On Iteration in Bisection 15
 a: 0.00000  b:-0.00002

 -0.02978 = (-0.02980 + -0.02977)/2.0
 sum -  nocc_ = -0.00000659
 On Iteration in Bisection 16
 a: -0.00001  b:-0.00002

 -0.02977 = (-0.02978 + -0.02977)/2.0
 sum -  nocc_ = -0.00000151
 On Iteration in Bisection 17
 a: -0.00000  b:-0.00001

 -0.02977 = (-0.02977 + -0.02977)/2.0
 sum -  nocc_ = 0.00000103
 On Iteration in Bisection 18
 a: 0.00000  b:-0.00000

 -0.02977 = (-0.02977 + -0.02977)/2.0
 sum -  nocc_ = -0.00000024
 On Iteration in Bisection 19
 a: -0.00000  b:-0.00000

 -0.02977 = (-0.02977 + -0.02977)/2.0
 sum -  nocc_ = 0.00000039
 On Iteration in Bisection 20
 a: 0.00000  b:-0.00000

 -0.02977 = (-0.02977 + -0.02977)/2.0
 sum -  nocc_ = 0.00000008
 On Iteration in Bisection 21
 a: 0.00000  b:-0.00000

 -0.02977 = (-0.02977 + -0.02977)/2.0
 sum -  nocc_ = -0.00000008
 On Iteration in Bisection 22
 a: -0.00000  b:-0.00000

 -0.02977 = (-0.02977 + -0.02977)/2.0
 sum -  nocc_ = -0.00000000
 ef = -0.02977 sum = 1.00000 

 Iter: 0  T:    20000.000  val:-0.029771  sumni 0.00000
 ne = 1.0000

 iter:1  failiter:1  energy:     -0.998621311482  total:     -0.758086216668  error:     -0.101874955039
 In Bisection function HOMO = -0.290  LUMO =  1.876

 0.79289 = (-0.29035 + 1.87613)/2.0
 sum -  nocc_ = 2.18125474
 On Iteration in Bisection 0
 a: 2.18125  b:-0.43629

 0.25127 = (-0.29035 + 0.79289)/2.0
 sum -  nocc_ = 1.05439974
 On Iteration in Bisection 1
 a: 1.05440  b:-0.43629

 -0.01954 = (-0.29035 + 0.25127)/2.0
 sum -  nocc_ = 0.81750377
 On Iteration in Bisection 2
 a: 0.81750  b:-0.43629

 -0.15494 = (-0.29035 + -0.01954)/2.0
 sum -  nocc_ = 0.26055652
 On Iteration in Bisection 3
 a: 0.26056  b:-0.43629

 -0.22265 = (-0.29035 + -0.15494)/2.0
 sum -  nocc_ = -0.09018645
 On Iteration in Bisection 4
 a: -0.09019  b:-0.43629

 -0.18879 = (-0.22265 + -0.15494)/2.0
 sum -  nocc_ = 0.08526165
 On Iteration in Bisection 5
 a: 0.08526  b:-0.09019

 -0.20572 = (-0.22265 + -0.18879)/2.0
 sum -  nocc_ = -0.00246298
 On Iteration in Bisection 6
 a: -0.00246  b:-0.09019

 -0.19726 = (-0.20572 + -0.18879)/2.0
 sum -  nocc_ = 0.04139418
 On Iteration in Bisection 7
 a: 0.04139  b:-0.00246

 -0.20149 = (-0.20572 + -0.19726)/2.0
 sum -  nocc_ = 0.01946485
 On Iteration in Bisection 8
 a: 0.01946  b:-0.00246

 -0.20360 = (-0.20572 + -0.20149)/2.0
 sum -  nocc_ = 0.00850084
 On Iteration in Bisection 9
 a: 0.00850  b:-0.00246

 -0.20466 = (-0.20572 + -0.20360)/2.0
 sum -  nocc_ = 0.00301891
 On Iteration in Bisection 10
 a: 0.00302  b:-0.00246

 -0.20519 = (-0.20572 + -0.20466)/2.0
 sum -  nocc_ = 0.00027796
 On Iteration in Bisection 11
 a: 0.00028  b:-0.00246

 -0.20546 = (-0.20572 + -0.20519)/2.0
 sum -  nocc_ = -0.00109251
 On Iteration in Bisection 12
 a: -0.00109  b:-0.00246

 -0.20532 = (-0.20546 + -0.20519)/2.0
 sum -  nocc_ = -0.00040727
 On Iteration in Bisection 13
 a: -0.00041  b:-0.00109

 -0.20526 = (-0.20532 + -0.20519)/2.0
 sum -  nocc_ = -0.00006465
 On Iteration in Bisection 14
 a: -0.00006  b:-0.00041

 -0.20522 = (-0.20526 + -0.20519)/2.0
 sum -  nocc_ = 0.00010666
 On Iteration in Bisection 15
 a: 0.00011  b:-0.00006

 -0.20524 = (-0.20526 + -0.20522)/2.0
 sum -  nocc_ = 0.00002100
 On Iteration in Bisection 16
 a: 0.00002  b:-0.00006

 -0.20525 = (-0.20526 + -0.20524)/2.0
 sum -  nocc_ = -0.00002183
 On Iteration in Bisection 17
 a: -0.00002  b:-0.00006

 -0.20524 = (-0.20525 + -0.20524)/2.0
 sum -  nocc_ = -0.00000041
 On Iteration in Bisection 18
 a: -0.00000  b:-0.00002

 -0.20524 = (-0.20524 + -0.20524)/2.0
 sum -  nocc_ = 0.00001029
 On Iteration in Bisection 19
 a: 0.00001  b:-0.00000

 -0.20524 = (-0.20524 + -0.20524)/2.0
 sum -  nocc_ = 0.00000494
 On Iteration in Bisection 20
 a: 0.00000  b:-0.00000

 -0.20524 = (-0.20524 + -0.20524)/2.0
 sum -  nocc_ = 0.00000226
 On Iteration in Bisection 21
 a: 0.00000  b:-0.00000

 -0.20524 = (-0.20524 + -0.20524)/2.0
 sum -  nocc_ = 0.00000093
 On Iteration in Bisection 22
 a: 0.00000  b:-0.00000

 -0.20524 = (-0.20524 + -0.20524)/2.0
 sum -  nocc_ = 0.00000026
 On Iteration in Bisection 23
 a: 0.00000  b:-0.00000

 -0.20524 = (-0.20524 + -0.20524)/2.0
 sum -  nocc_ = -0.00000008
 On Iteration in Bisection 24
 a: -0.00000  b:-0.00000

 -0.20524 = (-0.20524 + -0.20524)/2.0
 sum -  nocc_ = 0.00000009
 On Iteration in Bisection 25
 a: 0.00000  b:-0.00000

 -0.20524 = (-0.20524 + -0.20524)/2.0
 sum -  nocc_ = 0.00000001
 ef = -0.20524 sum = 1.00000 

 Iter: 1  T:    20000.000  val:-0.205245  sumni 0.00000
 ne = 1.0000

 iter:2  failiter:2  energy:     -0.996494053480  total:     -0.755958958666  error:      0.002127258002
 In Bisection function HOMO = -0.300  LUMO =  1.710

 0.70475 = (-0.30008 + 1.70958)/2.0
 sum -  nocc_ = 2.17981353
 On Iteration in Bisection 0
 a: 2.17981  b:-0.44957

 0.20233 = (-0.30008 + 0.70475)/2.0
 sum -  nocc_ = 0.99764992
 On Iteration in Bisection 1
 a: 0.99765  b:-0.44957

 -0.04888 = (-0.30008 + 0.20233)/2.0
 sum -  nocc_ = 0.71859977
 On Iteration in Bisection 2
 a: 0.71860  b:-0.44957

 -0.17448 = (-0.30008 + -0.04888)/2.0
 sum -  nocc_ = 0.15745981
 On Iteration in Bisection 3
 a: 0.15746  b:-0.44957

 -0.23728 = (-0.30008 + -0.17448)/2.0
 sum -  nocc_ = -0.14537055
 On Iteration in Bisection 4
 a: -0.14537  b:-0.44957

 -0.20588 = (-0.23728 + -0.17448)/2.0
 sum -  nocc_ = 0.00599139
 On Iteration in Bisection 5
 a: 0.00599  b:-0.14537

 -0.22158 = (-0.23728 + -0.20588)/2.0
 sum -  nocc_ = -0.06952720
 On Iteration in Bisection 6
 a: -0.06953  b:-0.14537

 -0.21373 = (-0.22158 + -0.20588)/2.0
 sum -  nocc_ = -0.03174739
 On Iteration in Bisection 7
 a: -0.03175  b:-0.06953

 -0.20981 = (-0.21373 + -0.20588)/2.0
 sum -  nocc_ = -0.01287588
 On Iteration in Bisection 8
 a: -0.01288  b:-0.03175

 -0.20784 = (-0.20981 + -0.20588)/2.0
 sum -  nocc_ = -0.00344210
 On Iteration in Bisection 9
 a: -0.00344  b:-0.01288

 -0.20686 = (-0.20784 + -0.20588)/2.0
 sum -  nocc_ = 0.00127463
 On Iteration in Bisection 10
 a: 0.00127  b:-0.00344

 -0.20735 = (-0.20784 + -0.20686)/2.0
 sum -  nocc_ = -0.00108373
 On Iteration in Bisection 11
 a: -0.00108  b:-0.00344

 -0.20711 = (-0.20735 + -0.20686)/2.0
 sum -  nocc_ = 0.00009545
 On Iteration in Bisection 12
 a: 0.00010  b:-0.00108

 -0.20723 = (-0.20735 + -0.20711)/2.0
 sum -  nocc_ = -0.00049414
 On Iteration in Bisection 13
 a: -0.00049  b:-0.00108

 -0.20717 = (-0.20723 + -0.20711)/2.0
 sum -  nocc_ = -0.00019935
 On Iteration in Bisection 14
 a: -0.00020  b:-0.00049

 -0.20714 = (-0.20717 + -0.20711)/2.0
 sum -  nocc_ = -0.00005195
 On Iteration in Bisection 15
 a: -0.00005  b:-0.00020

 -0.20712 = (-0.20714 + -0.20711)/2.0
 sum -  nocc_ = 0.00002175
 On Iteration in Bisection 16
 a: 0.00002  b:-0.00005

 -0.20713 = (-0.20714 + -0.20712)/2.0
 sum -  nocc_ = -0.00001510
 On Iteration in Bisection 17
 a: -0.00002  b:-0.00005

 -0.20713 = (-0.20713 + -0.20712)/2.0
 sum -  nocc_ = 0.00000332
 On Iteration in Bisection 18
 a: 0.00000  b:-0.00002

 -0.20713 = (-0.20713 + -0.20713)/2.0
 sum -  nocc_ = -0.00000589
 On Iteration in Bisection 19
 a: -0.00001  b:-0.00002

 -0.20713 = (-0.20713 + -0.20713)/2.0
 sum -  nocc_ = -0.00000128
 On Iteration in Bisection 20
 a: -0.00000  b:-0.00001

 -0.20713 = (-0.20713 + -0.20713)/2.0
 sum -  nocc_ = 0.00000102
 On Iteration in Bisection 21
 a: 0.00000  b:-0.00000

 -0.20713 = (-0.20713 + -0.20713)/2.0
 sum -  nocc_ = -0.00000013
 On Iteration in Bisection 22
 a: -0.00000  b:-0.00000

 -0.20713 = (-0.20713 + -0.20713)/2.0
 sum -  nocc_ = 0.00000044
 On Iteration in Bisection 23
 a: 0.00000  b:-0.00000

 -0.20713 = (-0.20713 + -0.20713)/2.0
 sum -  nocc_ = 0.00000016
 On Iteration in Bisection 24
 a: 0.00000  b:-0.00000

 -0.20713 = (-0.20713 + -0.20713)/2.0
 sum -  nocc_ = 0.00000001
 On Iteration in Bisection 25
 a: 0.00000  b:-0.00000

 -0.20713 = (-0.20713 + -0.20713)/2.0
 sum -  nocc_ = -0.00000006
 On Iteration in Bisection 26
 a: -0.00000  b:-0.00000

 -0.20713 = (-0.20713 + -0.20713)/2.0
 sum -  nocc_ = -0.00000002
 On Iteration in Bisection 27
 a: -0.00000  b:-0.00000

 -0.20713 = (-0.20713 + -0.20713)/2.0
 sum -  nocc_ = -0.00000000
 ef = -0.20713 sum = 1.00000 

 Iter: 2  T:    20000.000  val:-0.207128  sumni 0.00000
 ne = 1.0000

 iter:3  failiter:3  energy:     -1.014113864367  total:     -0.773578769553  error:     -0.017619810887
 In Bisection function HOMO = -0.323  LUMO =  1.636

 0.65612 = (-0.32338 + 1.63562)/2.0
 sum -  nocc_ = 2.01323259
 On Iteration in Bisection 0
 a: 2.01323  b:-0.47008

 0.16637 = (-0.32338 + 0.65612)/2.0
 sum -  nocc_ = 0.98687742
 On Iteration in Bisection 1
 a: 0.98688  b:-0.47008

 -0.07851 = (-0.32338 + 0.16637)/2.0
 sum -  nocc_ = 0.57526929
 On Iteration in Bisection 2
 a: 0.57527  b:-0.47008

 -0.20095 = (-0.32338 + -0.07851)/2.0
 sum -  nocc_ = 0.04935132
 On Iteration in Bisection 3
 a: 0.04935  b:-0.47008

 -0.26216 = (-0.32338 + -0.20095)/2.0
 sum -  nocc_ = -0.20053889
 On Iteration in Bisection 4
 a: -0.20054  b:-0.47008

 -0.23155 = (-0.26216 + -0.20095)/2.0
 sum -  nocc_ = -0.07379678
 On Iteration in Bisection 5
 a: -0.07380  b:-0.20054

 -0.21625 = (-0.23155 + -0.20095)/2.0
 sum -  nocc_ = -0.01214022
 On Iteration in Bisection 6
 a: -0.01214  b:-0.07380

 -0.20860 = (-0.21625 + -0.20095)/2.0
 sum -  nocc_ = 0.01857357
 On Iteration in Bisection 7
 a: 0.01857  b:-0.01214

 -0.21242 = (-0.21625 + -0.20860)/2.0
 sum -  nocc_ = 0.00321528
 On Iteration in Bisection 8
 a: 0.00322  b:-0.01214

 -0.21434 = (-0.21625 + -0.21242)/2.0
 sum -  nocc_ = -0.00446199
 On Iteration in Bisection 9
 a: -0.00446  b:-0.01214

 -0.21338 = (-0.21434 + -0.21242)/2.0
 sum -  nocc_ = -0.00062334
 On Iteration in Bisection 10
 a: -0.00062  b:-0.00446

 -0.21290 = (-0.21338 + -0.21242)/2.0
 sum -  nocc_ = 0.00129596
 On Iteration in Bisection 11
 a: 0.00130  b:-0.00062

 -0.21314 = (-0.21338 + -0.21290)/2.0
 sum -  nocc_ = 0.00033631
 On Iteration in Bisection 12
 a: 0.00034  b:-0.00062

 -0.21326 = (-0.21338 + -0.21314)/2.0
 sum -  nocc_ = -0.00014351
 On Iteration in Bisection 13
 a: -0.00014  b:-0.00062

 -0.21320 = (-0.21326 + -0.21314)/2.0
 sum -  nocc_ = 0.00009640
 On Iteration in Bisection 14
 a: 0.00010  b:-0.00014

 -0.21323 = (-0.21326 + -0.21320)/2.0
 sum -  nocc_ = -0.00002356
 On Iteration in Bisection 15
 a: -0.00002  b:-0.00014

 -0.21322 = (-0.21323 + -0.21320)/2.0
 sum -  nocc_ = 0.00003642
 On Iteration in Bisection 16
 a: 0.00004  b:-0.00002

 -0.21322 = (-0.21323 + -0.21322)/2.0
 sum -  nocc_ = 0.00000643
 On Iteration in Bisection 17
 a: 0.00001  b:-0.00002

 -0.21323 = (-0.21323 + -0.21322)/2.0
 sum -  nocc_ = -0.00000856
 On Iteration in Bisection 18
 a: -0.00001  b:-0.00002

 -0.21323 = (-0.21323 + -0.21322)/2.0
 sum -  nocc_ = -0.00000107
 On Iteration in Bisection 19
 a: -0.00000  b:-0.00001

 -0.21322 = (-0.21323 + -0.21322)/2.0
 sum -  nocc_ = 0.00000268
 On Iteration in Bisection 20
 a: 0.00000  b:-0.00000

 -0.21322 = (-0.21323 + -0.21322)/2.0
 sum -  nocc_ = 0.00000081
 On Iteration in Bisection 21
 a: 0.00000  b:-0.00000

 -0.21323 = (-0.21323 + -0.21322)/2.0
 sum -  nocc_ = -0.00000013
 On Iteration in Bisection 22
 a: -0.00000  b:-0.00000

 -0.21322 = (-0.21323 + -0.21322)/2.0
 sum -  nocc_ = 0.00000034
 On Iteration in Bisection 23
 a: 0.00000  b:-0.00000

 -0.21322 = (-0.21323 + -0.21322)/2.0
 sum -  nocc_ = 0.00000011
 On Iteration in Bisection 24
 a: 0.00000  b:-0.00000

 -0.21322 = (-0.21323 + -0.21322)/2.0
 sum -  nocc_ = -0.00000001
 On Iteration in Bisection 25
 a: -0.00000  b:-0.00000

 -0.21322 = (-0.21322 + -0.21322)/2.0
 sum -  nocc_ = 0.00000005
 On Iteration in Bisection 26
 a: 0.00000  b:-0.00000

 -0.21322 = (-0.21322 + -0.21322)/2.0
 sum -  nocc_ = 0.00000002
 On Iteration in Bisection 27
 a: 0.00000  b:-0.00000

 -0.21322 = (-0.21322 + -0.21322)/2.0
 sum -  nocc_ = 0.00000000
 ef = -0.21322 sum = 1.00000 

 Iter: 3  T:    20000.000  val:-0.213225  sumni 0.00000
 ne = 1.0000

 iter:4  failiter:4  energy:     -1.043625660157  total:     -0.803090565343  error:     -0.029511795790
 In Bisection function HOMO = -0.337  LUMO =  1.611

 0.63714 = (-0.33651 + 1.61080)/2.0
 sum -  nocc_ = 1.87892762
 On Iteration in Bisection 0
 a: 1.87893  b:-0.47929

 0.15032 = (-0.33651 + 0.63714)/2.0
 sum -  nocc_ = 0.97907139
 On Iteration in Bisection 1
 a: 0.97907  b:-0.47929

 -0.09310 = (-0.33651 + 0.15032)/2.0
 sum -  nocc_ = 0.47581649
 On Iteration in Bisection 2
 a: 0.47582  b:-0.47929

 -0.21480 = (-0.33651 + -0.09310)/2.0
 sum -  nocc_ = -0.00142922
 On Iteration in Bisection 3
 a: -0.00143  b:-0.47929

 -0.15395 = (-0.21480 + -0.09310)/2.0
 sum -  nocc_ = 0.22111338
 On Iteration in Bisection 4
 a: 0.22111  b:-0.00143

 -0.18438 = (-0.21480 + -0.15395)/2.0
 sum -  nocc_ = 0.10635012
 On Iteration in Bisection 5
 a: 0.10635  b:-0.00143

 -0.19959 = (-0.21480 + -0.18438)/2.0
 sum -  nocc_ = 0.05197717
 On Iteration in Bisection 6
 a: 0.05198  b:-0.00143

 -0.20720 = (-0.21480 + -0.19959)/2.0
 sum -  nocc_ = 0.02521360
 On Iteration in Bisection 7
 a: 0.02521  b:-0.00143

 -0.21100 = (-0.21480 + -0.20720)/2.0
 sum -  nocc_ = 0.01188502
 On Iteration in Bisection 8
 a: 0.01189  b:-0.00143

 -0.21290 = (-0.21480 + -0.21100)/2.0
 sum -  nocc_ = 0.00522711
 On Iteration in Bisection 9
 a: 0.00523  b:-0.00143

 -0.21385 = (-0.21480 + -0.21290)/2.0
 sum -  nocc_ = 0.00189887
 On Iteration in Bisection 10
 a: 0.00190  b:-0.00143

 -0.21433 = (-0.21480 + -0.21385)/2.0
 sum -  nocc_ = 0.00023482
 On Iteration in Bisection 11
 a: 0.00023  b:-0.00143

 -0.21457 = (-0.21480 + -0.21433)/2.0
 sum -  nocc_ = -0.00059720
 On Iteration in Bisection 12
 a: -0.00060  b:-0.00143

 -0.21445 = (-0.21457 + -0.21433)/2.0
 sum -  nocc_ = -0.00018119
 On Iteration in Bisection 13
 a: -0.00018  b:-0.00060

 -0.21439 = (-0.21445 + -0.21433)/2.0
 sum -  nocc_ = 0.00002682
 On Iteration in Bisection 14
 a: 0.00003  b:-0.00018

 -0.21442 = (-0.21445 + -0.21439)/2.0
 sum -  nocc_ = -0.00007718
 On Iteration in Bisection 15
 a: -0.00008  b:-0.00018

 -0.21440 = (-0.21442 + -0.21439)/2.0
 sum -  nocc_ = -0.00002518
 On Iteration in Bisection 16
 a: -0.00003  b:-0.00008

 -0.21440 = (-0.21440 + -0.21439)/2.0
 sum -  nocc_ = 0.00000082
 On Iteration in Bisection 17
 a: 0.00000  b:-0.00003

 -0.21440 = (-0.21440 + -0.21440)/2.0
 sum -  nocc_ = -0.00001218
 On Iteration in Bisection 18
 a: -0.00001  b:-0.00003

 -0.21440 = (-0.21440 + -0.21440)/2.0
 sum -  nocc_ = -0.00000568
 On Iteration in Bisection 19
 a: -0.00001  b:-0.00001

 -0.21440 = (-0.21440 + -0.21440)/2.0
 sum -  nocc_ = -0.00000243
 On Iteration in Bisection 20
 a: -0.00000  b:-0.00001

 -0.21440 = (-0.21440 + -0.21440)/2.0
 sum -  nocc_ = -0.00000081
 On Iteration in Bisection 21
 a: -0.00000  b:-0.00000

 -0.21440 = (-0.21440 + -0.21440)/2.0
 sum -  nocc_ = 0.00000000
 ef = -0.21440 sum = 1.00000 

 Iter: 4  T:    20000.000  val:-0.214396  sumni 0.00000
 ne = 1.0000

 iter:5  failiter:5  energy:     -1.060796402599  total:     -0.820261307785  error:     -0.017170742442
 In Bisection function HOMO = -0.342  LUMO =  1.606

 0.63183 = (-0.34227 + 1.60594)/2.0
 sum -  nocc_ = 1.83484926
 On Iteration in Bisection 0
 a: 1.83485  b:-0.48255

 0.14478 = (-0.34227 + 0.63183)/2.0
 sum -  nocc_ = 0.97511331
 On Iteration in Bisection 1
 a: 0.97511  b:-0.48255

 -0.09875 = (-0.34227 + 0.14478)/2.0
 sum -  nocc_ = 0.43286398
 On Iteration in Bisection 2
 a: 0.43286  b:-0.48255

 -0.22051 = (-0.34227 + -0.09875)/2.0
 sum -  nocc_ = -0.01924736
 On Iteration in Bisection 3
 a: -0.01925  b:-0.48255

 -0.15963 = (-0.22051 + -0.09875)/2.0
 sum -  nocc_ = 0.18814414
 On Iteration in Bisection 4
 a: 0.18814  b:-0.01925

 -0.19007 = (-0.22051 + -0.15963)/2.0
 sum -  nocc_ = 0.08127303
 On Iteration in Bisection 5
 a: 0.08127  b:-0.01925

 -0.20529 = (-0.22051 + -0.19007)/2.0
 sum -  nocc_ = 0.03068499
 On Iteration in Bisection 6
 a: 0.03068  b:-0.01925

 -0.21290 = (-0.22051 + -0.20529)/2.0
 sum -  nocc_ = 0.00570331
 On Iteration in Bisection 7
 a: 0.00570  b:-0.01925

 -0.21670 = (-0.22051 + -0.21290)/2.0
 sum -  nocc_ = -0.00676743
 On Iteration in Bisection 8
 a: -0.00677  b:-0.01925

 -0.21480 = (-0.21670 + -0.21290)/2.0
 sum -  nocc_ = -0.00053197
 On Iteration in Bisection 9
 a: -0.00053  b:-0.00677

 -0.21385 = (-0.21480 + -0.21290)/2.0
 sum -  nocc_ = 0.00258556
 On Iteration in Bisection 10
 a: 0.00259  b:-0.00053

 -0.21433 = (-0.21480 + -0.21385)/2.0
 sum -  nocc_ = 0.00102678
 On Iteration in Bisection 11
 a: 0.00103  b:-0.00053

 -0.21456 = (-0.21480 + -0.21433)/2.0
 sum -  nocc_ = 0.00024741
 On Iteration in Bisection 12
 a: 0.00025  b:-0.00053

 -0.21468 = (-0.21480 + -0.21456)/2.0
 sum -  nocc_ = -0.00014228
 On Iteration in Bisection 13
 a: -0.00014  b:-0.00053

 -0.21462 = (-0.21468 + -0.21456)/2.0
 sum -  nocc_ = 0.00005256
 On Iteration in Bisection 14
 a: 0.00005  b:-0.00014

 -0.21465 = (-0.21468 + -0.21462)/2.0
 sum -  nocc_ = -0.00004486
 On Iteration in Bisection 15
 a: -0.00004  b:-0.00014

 -0.21464 = (-0.21465 + -0.21462)/2.0
 sum -  nocc_ = 0.00000385
 On Iteration in Bisection 16
 a: 0.00000  b:-0.00004

 -0.21465 = (-0.21465 + -0.21464)/2.0
 sum -  nocc_ = -0.00002050
 On Iteration in Bisection 17
 a: -0.00002  b:-0.00004

 -0.21464 = (-0.21465 + -0.21464)/2.0
 sum -  nocc_ = -0.00000833
 On Iteration in Bisection 18
 a: -0.00001  b:-0.00002

 -0.21464 = (-0.21464 + -0.21464)/2.0
 sum -  nocc_ = -0.00000224
 On Iteration in Bisection 19
 a: -0.00000  b:-0.00001

 -0.21464 = (-0.21464 + -0.21464)/2.0
 sum -  nocc_ = 0.00000081
 On Iteration in Bisection 20
 a: 0.00000  b:-0.00000

 -0.21464 = (-0.21464 + -0.21464)/2.0
 sum -  nocc_ = -0.00000071
 On Iteration in Bisection 21
 a: -0.00000  b:-0.00000

 -0.21464 = (-0.21464 + -0.21464)/2.0
 sum -  nocc_ = 0.00000005
 On Iteration in Bisection 22
 a: 0.00000  b:-0.00000

 -0.21464 = (-0.21464 + -0.21464)/2.0
 sum -  nocc_ = -0.00000033
 On Iteration in Bisection 23
 a: -0.00000  b:-0.00000

 -0.21464 = (-0.21464 + -0.21464)/2.0
 sum -  nocc_ = -0.00000014
 On Iteration in Bisection 24
 a: -0.00000  b:-0.00000

 -0.21464 = (-0.21464 + -0.21464)/2.0
 sum -  nocc_ = -0.00000005
 On Iteration in Bisection 25
 a: -0.00000  b:-0.00000

 -0.21464 = (-0.21464 + -0.21464)/2.0
 sum -  nocc_ = -0.00000000
 ef = -0.21464 sum = 1.00000 

 Iter: 5  T:    20000.000  val:-0.214639  sumni 0.00000
 ne = 1.0000

 iter:6  failiter:6  energy:     -1.068428452909  total:     -0.827893358095  error:     -0.007632050310
 In Bisection function HOMO = -0.344  LUMO =  1.605

 0.63042 = (-0.34444 + 1.60527)/2.0
 sum -  nocc_ = 1.82266842
 On Iteration in Bisection 0
 a: 1.82267  b:-0.48368

 0.14299 = (-0.34444 + 0.63042)/2.0
 sum -  nocc_ = 0.97352098
 On Iteration in Bisection 1
 a: 0.97352  b:-0.48368

 -0.10072 = (-0.34444 + 0.14299)/2.0
 sum -  nocc_ = 0.41680740
 On Iteration in Bisection 2
 a: 0.41681  b:-0.48368

 -0.22258 = (-0.34444 + -0.10072)/2.0
 sum -  nocc_ = -0.02536092
 On Iteration in Bisection 3
 a: -0.02536  b:-0.48368

 -0.16165 = (-0.22258 + -0.10072)/2.0
 sum -  nocc_ = 0.17638962
 On Iteration in Bisection 4
 a: 0.17639  b:-0.02536

 -0.19212 = (-0.22258 + -0.16165)/2.0
 sum -  nocc_ = 0.07250937
 On Iteration in Bisection 5
 a: 0.07251  b:-0.02536

 -0.20735 = (-0.22258 + -0.19212)/2.0
 sum -  nocc_ = 0.02331294
 On Iteration in Bisection 6
 a: 0.02331  b:-0.02536

 -0.21496 = (-0.22258 + -0.20735)/2.0
 sum -  nocc_ = -0.00102110
 On Iteration in Bisection 7
 a: -0.00102  b:-0.02536

 -0.21116 = (-0.21496 + -0.20735)/2.0
 sum -  nocc_ = 0.01113801
 On Iteration in Bisection 8
 a: 0.01114  b:-0.00102

 -0.21306 = (-0.21496 + -0.21116)/2.0
 sum -  nocc_ = 0.00505755
 On Iteration in Bisection 9
 a: 0.00506  b:-0.00102

 -0.21401 = (-0.21496 + -0.21306)/2.0
 sum -  nocc_ = 0.00201814
 On Iteration in Bisection 10
 a: 0.00202  b:-0.00102

 -0.21449 = (-0.21496 + -0.21401)/2.0
 sum -  nocc_ = 0.00049851
 On Iteration in Bisection 11
 a: 0.00050  b:-0.00102

 -0.21473 = (-0.21496 + -0.21449)/2.0
 sum -  nocc_ = -0.00026129
 On Iteration in Bisection 12
 a: -0.00026  b:-0.00102

 -0.21461 = (-0.21473 + -0.21449)/2.0
 sum -  nocc_ = 0.00011861
 On Iteration in Bisection 13
 a: 0.00012  b:-0.00026

 -0.21467 = (-0.21473 + -0.21461)/2.0
 sum -  nocc_ = -0.00007134
 On Iteration in Bisection 14
 a: -0.00007  b:-0.00026

 -0.21464 = (-0.21467 + -0.21461)/2.0
 sum -  nocc_ = 0.00002363
 On Iteration in Bisection 15
 a: 0.00002  b:-0.00007

 -0.21465 = (-0.21467 + -0.21464)/2.0
 sum -  nocc_ = -0.00002385
 On Iteration in Bisection 16
 a: -0.00002  b:-0.00007

 -0.21464 = (-0.21465 + -0.21464)/2.0
 sum -  nocc_ = -0.00000011
 On Iteration in Bisection 17
 a: -0.00000  b:-0.00002

 -0.21464 = (-0.21464 + -0.21464)/2.0
 sum -  nocc_ = 0.00001176
 On Iteration in Bisection 18
 a: 0.00001  b:-0.00000

 -0.21464 = (-0.21464 + -0.21464)/2.0
 sum -  nocc_ = 0.00000583
 On Iteration in Bisection 19
 a: 0.00001  b:-0.00000

 -0.21464 = (-0.21464 + -0.21464)/2.0
 sum -  nocc_ = 0.00000286
 On Iteration in Bisection 20
 a: 0.00000  b:-0.00000

 -0.21464 = (-0.21464 + -0.21464)/2.0
 sum -  nocc_ = 0.00000137
 On Iteration in Bisection 21
 a: 0.00000  b:-0.00000

 -0.21464 = (-0.21464 + -0.21464)/2.0
 sum -  nocc_ = 0.00000063
 On Iteration in Bisection 22
 a: 0.00000  b:-0.00000

 -0.21464 = (-0.21464 + -0.21464)/2.0
 sum -  nocc_ = 0.00000026
 On Iteration in Bisection 23
 a: 0.00000  b:-0.00000

 -0.21464 = (-0.21464 + -0.21464)/2.0
 sum -  nocc_ = 0.00000008
 On Iteration in Bisection 24
 a: 0.00000  b:-0.00000

 -0.21464 = (-0.21464 + -0.21464)/2.0
 sum -  nocc_ = -0.00000002
 On Iteration in Bisection 25
 a: -0.00000  b:-0.00000

 -0.21464 = (-0.21464 + -0.21464)/2.0
 sum -  nocc_ = 0.00000003
 On Iteration in Bisection 26
 a: 0.00000  b:-0.00000

 -0.21464 = (-0.21464 + -0.21464)/2.0
 sum -  nocc_ = 0.00000001
 ef = -0.21464 sum = 1.00000 

 Iter: 6  T:    20000.000  val:-0.214644  sumni 0.00000
 ne = 1.0000

 iter:7  failiter:7  energy:     -1.071329263873  total:     -0.830794169059  error:     -0.002900810964
 In Bisection function HOMO = -0.345  LUMO =  1.605

 0.63001 = (-0.34521 + 1.60524)/2.0
 sum -  nocc_ = 1.81909385
 On Iteration in Bisection 0
 a: 1.81909  b:-0.48407

 0.14240 = (-0.34521 + 0.63001)/2.0
 sum -  nocc_ = 0.97293831
 On Iteration in Bisection 1
 a: 0.97294  b:-0.48407

 -0.10140 = (-0.34521 + 0.14240)/2.0
 sum -  nocc_ = 0.41107573
 On Iteration in Bisection 2
 a: 0.41108  b:-0.48407

 -0.22331 = (-0.34521 + -0.10140)/2.0
 sum -  nocc_ = -0.02747374
 On Iteration in Bisection 3
 a: -0.02747  b:-0.48407

 -0.16235 = (-0.22331 + -0.10140)/2.0
 sum -  nocc_ = 0.17226494
 On Iteration in Bisection 4
 a: 0.17226  b:-0.02747

 -0.19283 = (-0.22331 + -0.16235)/2.0
 sum -  nocc_ = 0.06945750
 On Iteration in Bisection 5
 a: 0.06946  b:-0.02747

 -0.20807 = (-0.22331 + -0.19283)/2.0
 sum -  nocc_ = 0.02075533
 On Iteration in Bisection 6
 a: 0.02076  b:-0.02747

 -0.21569 = (-0.22331 + -0.20807)/2.0
 sum -  nocc_ = -0.00334957
 On Iteration in Bisection 7
 a: -0.00335  b:-0.02747

 -0.21188 = (-0.21569 + -0.20807)/2.0
 sum -  nocc_ = 0.00869661
 On Iteration in Bisection 8
 a: 0.00870  b:-0.00335

 -0.21378 = (-0.21569 + -0.21188)/2.0
 sum -  nocc_ = 0.00267304
 On Iteration in Bisection 9
 a: 0.00267  b:-0.00335

 -0.21473 = (-0.21569 + -0.21378)/2.0
 sum -  nocc_ = -0.00033825
 On Iteration in Bisection 10
 a: -0.00034  b:-0.00335

 -0.21426 = (-0.21473 + -0.21378)/2.0
 sum -  nocc_ = 0.00116738
 On Iteration in Bisection 11
 a: 0.00117  b:-0.00034

 -0.21450 = (-0.21473 + -0.21426)/2.0
 sum -  nocc_ = 0.00041456
 On Iteration in Bisection 12
 a: 0.00041  b:-0.00034

 -0.21462 = (-0.21473 + -0.21450)/2.0
 sum -  nocc_ = 0.00003816
 On Iteration in Bisection 13
 a: 0.00004  b:-0.00034

 -0.21467 = (-0.21473 + -0.21462)/2.0
 sum -  nocc_ = -0.00015005
 On Iteration in Bisection 14
 a: -0.00015  b:-0.00034

 -0.21465 = (-0.21467 + -0.21462)/2.0
 sum -  nocc_ = -0.00005594
 On Iteration in Bisection 15
 a: -0.00006  b:-0.00015

 -0.21463 = (-0.21465 + -0.21462)/2.0
 sum -  nocc_ = -0.00000889
 On Iteration in Bisection 16
 a: -0.00001  b:-0.00006

 -0.21462 = (-0.21463 + -0.21462)/2.0
 sum -  nocc_ = 0.00001463
 On Iteration in Bisection 17
 a: 0.00001  b:-0.00001

 -0.21463 = (-0.21463 + -0.21462)/2.0
 sum -  nocc_ = 0.00000287
 On Iteration in Bisection 18
 a: 0.00000  b:-0.00001

 -0.21463 = (-0.21463 + -0.21463)/2.0
 sum -  nocc_ = -0.00000301
 On Iteration in Bisection 19
 a: -0.00000  b:-0.00001

 -0.21463 = (-0.21463 + -0.21463)/2.0
 sum -  nocc_ = -0.00000007
 On Iteration in Bisection 20
 a: -0.00000  b:-0.00000

 -0.21463 = (-0.21463 + -0.21463)/2.0
 sum -  nocc_ = 0.00000140
 On Iteration in Bisection 21
 a: 0.00000  b:-0.00000

 -0.21463 = (-0.21463 + -0.21463)/2.0
 sum -  nocc_ = 0.00000066
 On Iteration in Bisection 22
 a: 0.00000  b:-0.00000

 -0.21463 = (-0.21463 + -0.21463)/2.0
 sum -  nocc_ = 0.00000030
 On Iteration in Bisection 23
 a: 0.00000  b:-0.00000

 -0.21463 = (-0.21463 + -0.21463)/2.0
 sum -  nocc_ = 0.00000011
 On Iteration in Bisection 24
 a: 0.00000  b:-0.00000

 -0.21463 = (-0.21463 + -0.21463)/2.0
 sum -  nocc_ = 0.00000002
 On Iteration in Bisection 25
 a: 0.00000  b:-0.00000

 -0.21463 = (-0.21463 + -0.21463)/2.0
 sum -  nocc_ = -0.00000003
 On Iteration in Bisection 26
 a: -0.00000  b:-0.00000

 -0.21463 = (-0.21463 + -0.21463)/2.0
 sum -  nocc_ = -0.00000000
 ef = -0.21463 sum = 1.00000 

 Iter: 7  T:    20000.000  val:-0.214628  sumni 0.00000
 ne = 1.0000

 iter:8  failiter:8  energy:     -1.072371376543  total:     -0.831836281729  error:     -0.001042112670
 In Bisection function HOMO = -0.345  LUMO =  1.605

 0.62989 = (-0.34548 + 1.60526)/2.0
 sum -  nocc_ = 1.81795526
 On Iteration in Bisection 0
 a: 1.81796  b:-0.48421

 0.14220 = (-0.34548 + 0.62989)/2.0
 sum -  nocc_ = 0.97273167
 On Iteration in Bisection 1
 a: 0.97273  b:-0.48421

 -0.10164 = (-0.34548 + 0.14220)/2.0
 sum -  nocc_ = 0.40905803
 On Iteration in Bisection 2
 a: 0.40906  b:-0.48421

 -0.22356 = (-0.34548 + -0.10164)/2.0
 sum -  nocc_ = -0.02820884
 On Iteration in Bisection 3
 a: -0.02821  b:-0.48421

 -0.16260 = (-0.22356 + -0.10164)/2.0
 sum -  nocc_ = 0.17082158
 On Iteration in Bisection 4
 a: 0.17082  b:-0.02821

 -0.19308 = (-0.22356 + -0.16260)/2.0
 sum -  nocc_ = 0.06839253
 On Iteration in Bisection 5
 a: 0.06839  b:-0.02821

 -0.20832 = (-0.22356 + -0.19308)/2.0
 sum -  nocc_ = 0.01986411
 On Iteration in Bisection 6
 a: 0.01986  b:-0.02821

 -0.21594 = (-0.22356 + -0.20832)/2.0
 sum -  nocc_ = -0.00416032
 On Iteration in Bisection 7
 a: -0.00416  b:-0.02821

 -0.21213 = (-0.21594 + -0.20832)/2.0
 sum -  nocc_ = 0.00784620
 On Iteration in Bisection 8
 a: 0.00785  b:-0.00416

 -0.21403 = (-0.21594 + -0.21213)/2.0
 sum -  nocc_ = 0.00184261
 On Iteration in Bisection 9
 a: 0.00184  b:-0.00416

 -0.21499 = (-0.21594 + -0.21403)/2.0
 sum -  nocc_ = -0.00115881
 On Iteration in Bisection 10
 a: -0.00116  b:-0.00416

 -0.21451 = (-0.21499 + -0.21403)/2.0
 sum -  nocc_ = 0.00034190
 On Iteration in Bisection 11
 a: 0.00034  b:-0.00116

 -0.21475 = (-0.21499 + -0.21451)/2.0
 sum -  nocc_ = -0.00040845
 On Iteration in Bisection 12
 a: -0.00041  b:-0.00116

 -0.21463 = (-0.21475 + -0.21451)/2.0
 sum -  nocc_ = -0.00003328
 On Iteration in Bisection 13
 a: -0.00003  b:-0.00041

 -0.21457 = (-0.21463 + -0.21451)/2.0
 sum -  nocc_ = 0.00015431
 On Iteration in Bisection 14
 a: 0.00015  b:-0.00003

 -0.21460 = (-0.21463 + -0.21457)/2.0
 sum -  nocc_ = 0.00006051
 On Iteration in Bisection 15
 a: 0.00006  b:-0.00003

 -0.21461 = (-0.21463 + -0.21460)/2.0
 sum -  nocc_ = 0.00001362
 On Iteration in Bisection 16
 a: 0.00001  b:-0.00003

 -0.21462 = (-0.21463 + -0.21461)/2.0
 sum -  nocc_ = -0.00000983
 On Iteration in Bisection 17
 a: -0.00001  b:-0.00003

 -0.21462 = (-0.21462 + -0.21461)/2.0
 sum -  nocc_ = 0.00000189
 On Iteration in Bisection 18
 a: 0.00000  b:-0.00001

 -0.21462 = (-0.21462 + -0.21462)/2.0
 sum -  nocc_ = -0.00000397
 On Iteration in Bisection 19
 a: -0.00000  b:-0.00001

 -0.21462 = (-0.21462 + -0.21462)/2.0
 sum -  nocc_ = -0.00000104
 On Iteration in Bisection 20
 a: -0.00000  b:-0.00000

 -0.21462 = (-0.21462 + -0.21462)/2.0
 sum -  nocc_ = 0.00000043
 On Iteration in Bisection 21
 a: 0.00000  b:-0.00000

 -0.21462 = (-0.21462 + -0.21462)/2.0
 sum -  nocc_ = -0.00000030
 On Iteration in Bisection 22
 a: -0.00000  b:-0.00000

 -0.21462 = (-0.21462 + -0.21462)/2.0
 sum -  nocc_ = 0.00000006
 On Iteration in Bisection 23
 a: 0.00000  b:-0.00000

 -0.21462 = (-0.21462 + -0.21462)/2.0
 sum -  nocc_ = -0.00000012
 On Iteration in Bisection 24
 a: -0.00000  b:-0.00000

 -0.21462 = (-0.21462 + -0.21462)/2.0
 sum -  nocc_ = -0.00000003
 On Iteration in Bisection 25
 a: -0.00000  b:-0.00000

 -0.21462 = (-0.21462 + -0.21462)/2.0
 sum -  nocc_ = 0.00000002
 On Iteration in Bisection 26
 a: 0.00000  b:-0.00000

 -0.21462 = (-0.21462 + -0.21462)/2.0
 sum -  nocc_ = -0.00000001
 ef = -0.21462 sum = 1.00000 

 Iter: 8  T:    20000.000  val:-0.214618  sumni 0.00000
 ne = 1.0000

 iter:9  failiter:9  energy:     -1.072738289091  total:     -0.832203194277  error:     -0.000366912548
 In Bisection function HOMO = -0.346  LUMO =  1.605

 0.62985 = (-0.34557 + 1.60527)/2.0
 sum -  nocc_ = 1.81757437
 On Iteration in Bisection 0
 a: 1.81757  b:-0.48426

 0.14214 = (-0.34557 + 0.62985)/2.0
 sum -  nocc_ = 0.97265912
 On Iteration in Bisection 1
 a: 0.97266  b:-0.48426

 -0.10172 = (-0.34557 + 0.14214)/2.0
 sum -  nocc_ = 0.40835097
 On Iteration in Bisection 2
 a: 0.40835  b:-0.48426

 -0.22365 = (-0.34557 + -0.10172)/2.0
 sum -  nocc_ = -0.02846537
 On Iteration in Bisection 3
 a: -0.02847  b:-0.48426

 -0.16268 = (-0.22365 + -0.10172)/2.0
 sum -  nocc_ = 0.17031682
 On Iteration in Bisection 4
 a: 0.17032  b:-0.02847

 -0.19316 = (-0.22365 + -0.16268)/2.0
 sum -  nocc_ = 0.06802046
 On Iteration in Bisection 5
 a: 0.06802  b:-0.02847

 -0.20841 = (-0.22365 + -0.19316)/2.0
 sum -  nocc_ = 0.01955292
 On Iteration in Bisection 6
 a: 0.01955  b:-0.02847

 -0.21603 = (-0.22365 + -0.20841)/2.0
 sum -  nocc_ = -0.00444333
 On Iteration in Bisection 7
 a: -0.00444  b:-0.02847

 -0.21222 = (-0.21603 + -0.20841)/2.0
 sum -  nocc_ = 0.00754931
 On Iteration in Bisection 8
 a: 0.00755  b:-0.00444

 -0.21412 = (-0.21603 + -0.21222)/2.0
 sum -  nocc_ = 0.00155270
 On Iteration in Bisection 9
 a: 0.00155  b:-0.00444

 -0.21507 = (-0.21603 + -0.21412)/2.0
 sum -  nocc_ = -0.00144525
 On Iteration in Bisection 10
 a: -0.00145  b:-0.00444

 -0.21460 = (-0.21507 + -0.21412)/2.0
 sum -  nocc_ = 0.00005373
 On Iteration in Bisection 11
 a: 0.00005  b:-0.00145

 -0.21483 = (-0.21507 + -0.21460)/2.0
 sum -  nocc_ = -0.00069576
 On Iteration in Bisection 12
 a: -0.00070  b:-0.00145

 -0.21472 = (-0.21483 + -0.21460)/2.0
 sum -  nocc_ = -0.00032102
 On Iteration in Bisection 13
 a: -0.00032  b:-0.00070

 -0.21466 = (-0.21472 + -0.21460)/2.0
 sum -  nocc_ = -0.00013365
 On Iteration in Bisection 14
 a: -0.00013  b:-0.00032

 -0.21463 = (-0.21466 + -0.21460)/2.0
 sum -  nocc_ = -0.00003996
 On Iteration in Bisection 15
 a: -0.00004  b:-0.00013

 -0.21461 = (-0.21463 + -0.21460)/2.0
 sum -  nocc_ = 0.00000688
 On Iteration in Bisection 16
 a: 0.00001  b:-0.00004

 -0.21462 = (-0.21463 + -0.21461)/2.0
 sum -  nocc_ = -0.00001654
 On Iteration in Bisection 17
 a: -0.00002  b:-0.00004

 -0.21462 = (-0.21462 + -0.21461)/2.0
 sum -  nocc_ = -0.00000483
 On Iteration in Bisection 18
 a: -0.00000  b:-0.00002

 -0.21461 = (-0.21462 + -0.21461)/2.0
 sum -  nocc_ = 0.00000103
 On Iteration in Bisection 19
 a: 0.00000  b:-0.00000

 -0.21461 = (-0.21462 + -0.21461)/2.0
 sum -  nocc_ = -0.00000190
 On Iteration in Bisection 20
 a: -0.00000  b:-0.00000

 -0.21461 = (-0.21461 + -0.21461)/2.0
 sum -  nocc_ = -0.00000044
 On Iteration in Bisection 21
 a: -0.00000  b:-0.00000

 -0.21461 = (-0.21461 + -0.21461)/2.0
 sum -  nocc_ = 0.00000030
 On Iteration in Bisection 22
 a: 0.00000  b:-0.00000

 -0.21461 = (-0.21461 + -0.21461)/2.0
 sum -  nocc_ = -0.00000007
 On Iteration in Bisection 23
 a: -0.00000  b:-0.00000

 -0.21461 = (-0.21461 + -0.21461)/2.0
 sum -  nocc_ = 0.00000011
 On Iteration in Bisection 24
 a: 0.00000  b:-0.00000

 -0.21461 = (-0.21461 + -0.21461)/2.0
 sum -  nocc_ = 0.00000002
 On Iteration in Bisection 25
 a: 0.00000  b:-0.00000

 -0.21461 = (-0.21461 + -0.21461)/2.0
 sum -  nocc_ = -0.00000002
 On Iteration in Bisection 26
 a: -0.00000  b:-0.00000

 -0.21461 = (-0.21461 + -0.21461)/2.0
 sum -  nocc_ = -0.00000000
 ef = -0.21461 sum = 1.00000 

 Iter: 9  T:    20000.000  val:-0.214614  sumni 0.00000
 ne = 1.0000

 iter:10  failiter:10  energy:     -1.072866735725  total:     -0.832331640912  error:     -0.000128446634
 In Bisection function HOMO = -0.346  LUMO =  1.605

 0.62983 = (-0.34561 + 1.60527)/2.0
 sum -  nocc_ = 1.81744378
 On Iteration in Bisection 0
 a: 1.81744  b:-0.48428

 0.14211 = (-0.34561 + 0.62983)/2.0
 sum -  nocc_ = 0.97263372
 On Iteration in Bisection 1
 a: 0.97263  b:-0.48428

 -0.10175 = (-0.34561 + 0.14211)/2.0
 sum -  nocc_ = 0.40810355
 On Iteration in Bisection 2
 a: 0.40810  b:-0.48428

 -0.22368 = (-0.34561 + -0.10175)/2.0
 sum -  nocc_ = -0.02855501
 On Iteration in Bisection 3
 a: -0.02856  b:-0.48428

 -0.16271 = (-0.22368 + -0.10175)/2.0
 sum -  nocc_ = 0.17014030
 On Iteration in Bisection 4
 a: 0.17014  b:-0.02856

 -0.19319 = (-0.22368 + -0.16271)/2.0
 sum -  nocc_ = 0.06789039
 On Iteration in Bisection 5
 a: 0.06789  b:-0.02856

 -0.20844 = (-0.22368 + -0.19319)/2.0
 sum -  nocc_ = 0.01944416
 On Iteration in Bisection 6
 a: 0.01944  b:-0.02856

 -0.21606 = (-0.22368 + -0.20844)/2.0
 sum -  nocc_ = -0.00454224
 On Iteration in Bisection 7
 a: -0.00454  b:-0.02856

 -0.21225 = (-0.21606 + -0.20844)/2.0
 sum -  nocc_ = 0.00744554
 On Iteration in Bisection 8
 a: 0.00745  b:-0.00454

 -0.21415 = (-0.21606 + -0.21225)/2.0
 sum -  nocc_ = 0.00145139
 On Iteration in Bisection 9
 a: 0.00145  b:-0.00454

 -0.21510 = (-0.21606 + -0.21415)/2.0
 sum -  nocc_ = -0.00154535
 On Iteration in Bisection 10
 a: -0.00155  b:-0.00454

 -0.21463 = (-0.21510 + -0.21415)/2.0
 sum -  nocc_ = -0.00004698
 On Iteration in Bisection 11
 a: -0.00005  b:-0.00155

 -0.21439 = (-0.21463 + -0.21415)/2.0
 sum -  nocc_ = 0.00070220
 On Iteration in Bisection 12
 a: 0.00070  b:-0.00005

 -0.21451 = (-0.21463 + -0.21439)/2.0
 sum -  nocc_ = 0.00032761
 On Iteration in Bisection 13
 a: 0.00033  b:-0.00005

 -0.21457 = (-0.21463 + -0.21451)/2.0
 sum -  nocc_ = 0.00014031
 On Iteration in Bisection 14
 a: 0.00014  b:-0.00005

 -0.21460 = (-0.21463 + -0.21457)/2.0
 sum -  nocc_ = 0.00004667
 On Iteration in Bisection 15
 a: 0.00005  b:-0.00005

 -0.21461 = (-0.21463 + -0.21460)/2.0
 sum -  nocc_ = -0.00000016
 On Iteration in Bisection 16
 a: -0.00000  b:-0.00005

 -0.21460 = (-0.21461 + -0.21460)/2.0
 sum -  nocc_ = 0.00002325
 On Iteration in Bisection 17
 a: 0.00002  b:-0.00000

 -0.21461 = (-0.21461 + -0.21460)/2.0
 sum -  nocc_ = 0.00001155
 On Iteration in Bisection 18
 a: 0.00001  b:-0.00000

 -0.21461 = (-0.21461 + -0.21461)/2.0
 sum -  nocc_ = 0.00000569
 On Iteration in Bisection 19
 a: 0.00001  b:-0.00000

 -0.21461 = (-0.21461 + -0.21461)/2.0
 sum -  nocc_ = 0.00000277
 On Iteration in Bisection 20
 a: 0.00000  b:-0.00000

 -0.21461 = (-0.21461 + -0.21461)/2.0
 sum -  nocc_ = 0.00000130
 On Iteration in Bisection 21
 a: 0.00000  b:-0.00000

 -0.21461 = (-0.21461 + -0.21461)/2.0
 sum -  nocc_ = 0.00000057
 On Iteration in Bisection 22
 a: 0.00000  b:-0.00000

 -0.21461 = (-0.21461 + -0.21461)/2.0
 sum -  nocc_ = 0.00000021
 On Iteration in Bisection 23
 a: 0.00000  b:-0.00000

 -0.21461 = (-0.21461 + -0.21461)/2.0
 sum -  nocc_ = 0.00000002
 On Iteration in Bisection 24
 a: 0.00000  b:-0.00000

 -0.21461 = (-0.21461 + -0.21461)/2.0
 sum -  nocc_ = -0.00000007
 On Iteration in Bisection 25
 a: -0.00000  b:-0.00000

 -0.21461 = (-0.21461 + -0.21461)/2.0
 sum -  nocc_ = -0.00000002
 On Iteration in Bisection 26
 a: -0.00000  b:-0.00000

 -0.21461 = (-0.21461 + -0.21461)/2.0
 sum -  nocc_ = 0.00000000
 ef = -0.21461 sum = 1.00000 

 Iter: 10  T:    20000.000  val:-0.214612  sumni 0.00000
 ne = 1.0000

 iter:11  failiter:11  energy:     -1.072911635524  total:     -0.832376540710  error:     -0.000044899799
 In Bisection function HOMO = -0.346  LUMO =  1.605

 0.62983 = (-0.34562 + 1.60528)/2.0
 sum -  nocc_ = 1.81739850
 On Iteration in Bisection 0
 a: 1.81740  b:-0.48428

 0.14211 = (-0.34562 + 0.62983)/2.0
 sum -  nocc_ = 0.97262484
 On Iteration in Bisection 1
 a: 0.97262  b:-0.48428

 -0.10176 = (-0.34562 + 0.14211)/2.0
 sum -  nocc_ = 0.40801699
 On Iteration in Bisection 2
 a: 0.40802  b:-0.48428

 -0.22369 = (-0.34562 + -0.10176)/2.0
 sum -  nocc_ = -0.02858634
 On Iteration in Bisection 3
 a: -0.02859  b:-0.48428

 -0.16272 = (-0.22369 + -0.10176)/2.0
 sum -  nocc_ = 0.17007856
 On Iteration in Bisection 4
 a: 0.17008  b:-0.02859

 -0.19320 = (-0.22369 + -0.16272)/2.0
 sum -  nocc_ = 0.06784491
 On Iteration in Bisection 5
 a: 0.06784  b:-0.02859

 -0.20845 = (-0.22369 + -0.19320)/2.0
 sum -  nocc_ = 0.01940613
 On Iteration in Bisection 6
 a: 0.01941  b:-0.02859

 -0.21607 = (-0.22369 + -0.20845)/2.0
 sum -  nocc_ = -0.00457682
 On Iteration in Bisection 7
 a: -0.00458  b:-0.02859

 -0.21226 = (-0.21607 + -0.20845)/2.0
 sum -  nocc_ = 0.00740926
 On Iteration in Bisection 8
 a: 0.00741  b:-0.00458

 -0.21416 = (-0.21607 + -0.21226)/2.0
 sum -  nocc_ = 0.00141596
 On Iteration in Bisection 9
 a: 0.00142  b:-0.00458

 -0.21511 = (-0.21607 + -0.21416)/2.0
 sum -  nocc_ = -0.00158035
 On Iteration in Bisection 10
 a: -0.00158  b:-0.00458

 -0.21464 = (-0.21511 + -0.21416)/2.0
 sum -  nocc_ = -0.00008219
 On Iteration in Bisection 11
 a: -0.00008  b:-0.00158

 -0.21440 = (-0.21464 + -0.21416)/2.0
 sum -  nocc_ = 0.00066688
 On Iteration in Bisection 12
 a: 0.00067  b:-0.00008

 -0.21452 = (-0.21464 + -0.21440)/2.0
 sum -  nocc_ = 0.00029234
 On Iteration in Bisection 13
 a: 0.00029  b:-0.00008

 -0.21458 = (-0.21464 + -0.21452)/2.0
 sum -  nocc_ = 0.00010508
 On Iteration in Bisection 14
 a: 0.00011  b:-0.00008

 -0.21461 = (-0.21464 + -0.21458)/2.0
 sum -  nocc_ = 0.00001144
 On Iteration in Bisection 15
 a: 0.00001  b:-0.00008

 -0.21462 = (-0.21464 + -0.21461)/2.0
 sum -  nocc_ = -0.00003538
 On Iteration in Bisection 16
 a: -0.00004  b:-0.00008

 -0.21462 = (-0.21462 + -0.21461)/2.0
 sum -  nocc_ = -0.00001197
 On Iteration in Bisection 17
 a: -0.00001  b:-0.00004

 -0.21461 = (-0.21462 + -0.21461)/2.0
 sum -  nocc_ = -0.00000026
 On Iteration in Bisection 18
 a: -0.00000  b:-0.00001

 -0.21461 = (-0.21461 + -0.21461)/2.0
 sum -  nocc_ = 0.00000559
 On Iteration in Bisection 19
 a: 0.00001  b:-0.00000

 -0.21461 = (-0.21461 + -0.21461)/2.0
 sum -  nocc_ = 0.00000266
 On Iteration in Bisection 20
 a: 0.00000  b:-0.00000

 -0.21461 = (-0.21461 + -0.21461)/2.0
 sum -  nocc_ = 0.00000120
 On Iteration in Bisection 21
 a: 0.00000  b:-0.00000

 -0.21461 = (-0.21461 + -0.21461)/2.0
 sum -  nocc_ = 0.00000047
 On Iteration in Bisection 22
 a: 0.00000  b:-0.00000

 -0.21461 = (-0.21461 + -0.21461)/2.0
 sum -  nocc_ = 0.00000010
 On Iteration in Bisection 23
 a: 0.00000  b:-0.00000

 -0.21461 = (-0.21461 + -0.21461)/2.0
 sum -  nocc_ = -0.00000008
 On Iteration in Bisection 24
 a: -0.00000  b:-0.00000

 -0.21461 = (-0.21461 + -0.21461)/2.0
 sum -  nocc_ = 0.00000001
 On Iteration in Bisection 25
 a: 0.00000  b:-0.00000

 -0.21461 = (-0.21461 + -0.21461)/2.0
 sum -  nocc_ = -0.00000004
 On Iteration in Bisection 26
 a: -0.00000  b:-0.00000

 -0.21461 = (-0.21461 + -0.21461)/2.0
 sum -  nocc_ = -0.00000001
 On Iteration in Bisection 27
 a: -0.00000  b:-0.00000

 -0.21461 = (-0.21461 + -0.21461)/2.0
 sum -  nocc_ = -0.00000000
 ef = -0.21461 sum = 1.00000 

 Iter: 11  T:    20000.000  val:-0.214612  sumni 0.00000
 ne = 1.0000

 iter:12  failiter:12  energy:     -1.072927326428  total:     -0.832392231614  error:     -0.000015690904
 In Bisection function HOMO = -0.346  LUMO =  1.605

 0.62983 = (-0.34562 + 1.60528)/2.0
 sum -  nocc_ = 1.81738273
 On Iteration in Bisection 0
 a: 1.81738  b:-0.48428

 0.14210 = (-0.34562 + 0.62983)/2.0
 sum -  nocc_ = 0.97262173
 On Iteration in Bisection 1
 a: 0.97262  b:-0.48428

 -0.10176 = (-0.34562 + 0.14210)/2.0
 sum -  nocc_ = 0.40798672
 On Iteration in Bisection 2
 a: 0.40799  b:-0.48428

 -0.22369 = (-0.34562 + -0.10176)/2.0
 sum -  nocc_ = -0.02859730
 On Iteration in Bisection 3
 a: -0.02860  b:-0.48428

 -0.16273 = (-0.22369 + -0.10176)/2.0
 sum -  nocc_ = 0.17005697
 On Iteration in Bisection 4
 a: 0.17006  b:-0.02860

 -0.19321 = (-0.22369 + -0.16273)/2.0
 sum -  nocc_ = 0.06782901
 On Iteration in Bisection 5
 a: 0.06783  b:-0.02860

 -0.20845 = (-0.22369 + -0.19321)/2.0
 sum -  nocc_ = 0.01939283
 On Iteration in Bisection 6
 a: 0.01939  b:-0.02860

 -0.21607 = (-0.22369 + -0.20845)/2.0
 sum -  nocc_ = -0.00458891
 On Iteration in Bisection 7
 a: -0.00459  b:-0.02860

 -0.21226 = (-0.21607 + -0.20845)/2.0
 sum -  nocc_ = 0.00739658
 On Iteration in Bisection 8
 a: 0.00740  b:-0.00459

 -0.21417 = (-0.21607 + -0.21226)/2.0
 sum -  nocc_ = 0.00140358
 On Iteration in Bisection 9
 a: 0.00140  b:-0.00459

 -0.21512 = (-0.21607 + -0.21417)/2.0
 sum -  nocc_ = -0.00159260
 On Iteration in Bisection 10
 a: -0.00159  b:-0.00459

 -0.21464 = (-0.21512 + -0.21417)/2.0
 sum -  nocc_ = -0.00009451
 On Iteration in Bisection 11
 a: -0.00009  b:-0.00159

 -0.21440 = (-0.21464 + -0.21417)/2.0
 sum -  nocc_ = 0.00065453
 On Iteration in Bisection 12
 a: 0.00065  b:-0.00009

 -0.21452 = (-0.21464 + -0.21440)/2.0
 sum -  nocc_ = 0.00028001
 On Iteration in Bisection 13
 a: 0.00028  b:-0.00009

 -0.21458 = (-0.21464 + -0.21452)/2.0
 sum -  nocc_ = 0.00009275
 On Iteration in Bisection 14
 a: 0.00009  b:-0.00009

 -0.21461 = (-0.21464 + -0.21458)/2.0
 sum -  nocc_ = -0.00000088
 On Iteration in Bisection 15
 a: -0.00000  b:-0.00009

 -0.21460 = (-0.21461 + -0.21458)/2.0
 sum -  nocc_ = 0.00004594
 On Iteration in Bisection 16
 a: 0.00005  b:-0.00000

 -0.21460 = (-0.21461 + -0.21460)/2.0
 sum -  nocc_ = 0.00002253
 On Iteration in Bisection 17
 a: 0.00002  b:-0.00000

 -0.21461 = (-0.21461 + -0.21460)/2.0
 sum -  nocc_ = 0.00001083
 On Iteration in Bisection 18
 a: 0.00001  b:-0.00000

 -0.21461 = (-0.21461 + -0.21461)/2.0
 sum -  nocc_ = 0.00000497
 On Iteration in Bisection 19
 a: 0.00000  b:-0.00000

 -0.21461 = (-0.21461 + -0.21461)/2.0
 sum -  nocc_ = 0.00000205
 On Iteration in Bisection 20
 a: 0.00000  b:-0.00000

 -0.21461 = (-0.21461 + -0.21461)/2.0
 sum -  nocc_ = 0.00000058
 On Iteration in Bisection 21
 a: 0.00000  b:-0.00000

 -0.21461 = (-0.21461 + -0.21461)/2.0
 sum -  nocc_ = -0.00000015
 On Iteration in Bisection 22
 a: -0.00000  b:-0.00000

 -0.21461 = (-0.21461 + -0.21461)/2.0
 sum -  nocc_ = 0.00000022
 On Iteration in Bisection 23
 a: 0.00000  b:-0.00000

 -0.21461 = (-0.21461 + -0.21461)/2.0
 sum -  nocc_ = 0.00000004
 On Iteration in Bisection 24
 a: 0.00000  b:-0.00000

 -0.21461 = (-0.21461 + -0.21461)/2.0
 sum -  nocc_ = -0.00000006
 On Iteration in Bisection 25
 a: -0.00000  b:-0.00000

 -0.21461 = (-0.21461 + -0.21461)/2.0
 sum -  nocc_ = -0.00000001
 ef = -0.21461 sum = 1.00000 

 Iter: 12  T:    20000.000  val:-0.214611  sumni 0.00000
 ne = 1.0000

 iter:13  failiter:13  energy:     -1.072932806700  total:     -0.832397711886  error:     -0.000005480271
[...]

 Iter: 22  T:    20000.000  val:-0.214611  sumni 0.00000
 ne = 1.0000

 iter:23  failiter:23  energy:     -1.072935762807  total:     -0.832400667993  error:     -0.000000000323
 In Bisection function HOMO = -0.346  LUMO =  1.605

 0.62983 = (-0.34562 + 1.60528)/2.0
 sum -  nocc_ = 1.81737426
 On Iteration in Bisection 0
 a: 1.81737  b:-0.48429

 0.14210 = (-0.34562 + 0.62983)/2.0
 sum -  nocc_ = 0.97262006
 On Iteration in Bisection 1
 a: 0.97262  b:-0.48429

 -0.10176 = (-0.34562 + 0.14210)/2.0
 sum -  nocc_ = 0.40797043
 On Iteration in Bisection 2
 a: 0.40797  b:-0.48429

 -0.22369 = (-0.34562 + -0.10176)/2.0
 sum -  nocc_ = -0.02860320
 On Iteration in Bisection 3
 a: -0.02860  b:-0.48429

 -0.16273 = (-0.22369 + -0.10176)/2.0
 sum -  nocc_ = 0.17004536
 On Iteration in Bisection 4
 a: 0.17005  b:-0.02860

 -0.19321 = (-0.22369 + -0.16273)/2.0
 sum -  nocc_ = 0.06782045
 On Iteration in Bisection 5
 a: 0.06782  b:-0.02860

 -0.20845 = (-0.22369 + -0.19321)/2.0
 sum -  nocc_ = 0.01938568
 On Iteration in Bisection 6
 a: 0.01939  b:-0.02860

 -0.21607 = (-0.22369 + -0.20845)/2.0
 sum -  nocc_ = -0.00459542
 On Iteration in Bisection 7
 a: -0.00460  b:-0.02860

 -0.21226 = (-0.21607 + -0.20845)/2.0
 sum -  nocc_ = 0.00738975
 On Iteration in Bisection 8
 a: 0.00739  b:-0.00460

 -0.21417 = (-0.21607 + -0.21226)/2.0
 sum -  nocc_ = 0.00139691
 On Iteration in Bisection 9
 a: 0.00140  b:-0.00460

 -0.21512 = (-0.21607 + -0.21417)/2.0
 sum -  nocc_ = -0.00159918
 On Iteration in Bisection 10
 a: -0.00160  b:-0.00460

 -0.21464 = (-0.21512 + -0.21417)/2.0
 sum -  nocc_ = -0.00010113
 On Iteration in Bisection 11
 a: -0.00010  b:-0.00160

 -0.21441 = (-0.21464 + -0.21417)/2.0
 sum -  nocc_ = 0.00064789
 On Iteration in Bisection 12
 a: 0.00065  b:-0.00010

 -0.21452 = (-0.21464 + -0.21441)/2.0
 sum -  nocc_ = 0.00027338
 On Iteration in Bisection 13
 a: 0.00027  b:-0.00010

 -0.21458 = (-0.21464 + -0.21452)/2.0
 sum -  nocc_ = 0.00008612
 On Iteration in Bisection 14
 a: 0.00009  b:-0.00010

 -0.21461 = (-0.21464 + -0.21458)/2.0
 sum -  nocc_ = -0.00000750
 On Iteration in Bisection 15
 a: -0.00001  b:-0.00010

 -0.21460 = (-0.21461 + -0.21458)/2.0
 sum -  nocc_ = 0.00003931
 On Iteration in Bisection 16
 a: 0.00004  b:-0.00001

 -0.21461 = (-0.21461 + -0.21460)/2.0
 sum -  nocc_ = 0.00001590
 On Iteration in Bisection 17
 a: 0.00002  b:-0.00001

 -0.21461 = (-0.21461 + -0.21461)/2.0
 sum -  nocc_ = 0.00000420
 On Iteration in Bisection 18
 a: 0.00000  b:-0.00001

 -0.21461 = (-0.21461 + -0.21461)/2.0
 sum -  nocc_ = -0.00000165
 On Iteration in Bisection 19
 a: -0.00000  b:-0.00001

 -0.21461 = (-0.21461 + -0.21461)/2.0
 sum -  nocc_ = 0.00000127
 On Iteration in Bisection 20
 a: 0.00000  b:-0.00000

 -0.21461 = (-0.21461 + -0.21461)/2.0
 sum -  nocc_ = -0.00000019
 On Iteration in Bisection 21
 a: -0.00000  b:-0.00000

 -0.21461 = (-0.21461 + -0.21461)/2.0
 sum -  nocc_ = 0.00000054
 On Iteration in Bisection 22
 a: 0.00000  b:-0.00000

 -0.21461 = (-0.21461 + -0.21461)/2.0
 sum -  nocc_ = 0.00000018
 On Iteration in Bisection 23
 a: 0.00000  b:-0.00000

 -0.21461 = (-0.21461 + -0.21461)/2.0
 sum -  nocc_ = -0.00000001
 ef = -0.21461 sum = 1.00000 

 Iter: 23  T:    20000.000  val:-0.214611  sumni 0.00000
 ne = 1.0000

 iter:24  failiter:24  energy:     -1.072935762920  total:     -0.832400668107  error:     -0.000000000113
 In Bisection function HOMO = -0.346  LUMO =  1.605

 0.62983 = (-0.34562 + 1.60528)/2.0
 sum -  nocc_ = 1.81737426
 On Iteration in Bisection 0
 a: 1.81737  b:-0.48429

 0.14210 = (-0.34562 + 0.62983)/2.0
 sum -  nocc_ = 0.97262006
 On Iteration in Bisection 1
 a: 0.97262  b:-0.48429

 -0.10176 = (-0.34562 + 0.14210)/2.0
 sum -  nocc_ = 0.40797043
 On Iteration in Bisection 2
 a: 0.40797  b:-0.48429

 -0.22369 = (-0.34562 + -0.10176)/2.0
 sum -  nocc_ = -0.02860320
 On Iteration in Bisection 3
 a: -0.02860  b:-0.48429

 -0.16273 = (-0.22369 + -0.10176)/2.0
 sum -  nocc_ = 0.17004536
 On Iteration in Bisection 4
 a: 0.17005  b:-0.02860

 -0.19321 = (-0.22369 + -0.16273)/2.0
 sum -  nocc_ = 0.06782045
 On Iteration in Bisection 5
 a: 0.06782  b:-0.02860

 -0.20845 = (-0.22369 + -0.19321)/2.0
 sum -  nocc_ = 0.01938568
 On Iteration in Bisection 6
 a: 0.01939  b:-0.02860

 -0.21607 = (-0.22369 + -0.20845)/2.0
 sum -  nocc_ = -0.00459542
 On Iteration in Bisection 7
 a: -0.00460  b:-0.02860

 -0.21226 = (-0.21607 + -0.20845)/2.0
 sum -  nocc_ = 0.00738975
 On Iteration in Bisection 8
 a: 0.00739  b:-0.00460

 -0.21417 = (-0.21607 + -0.21226)/2.0
 sum -  nocc_ = 0.00139691
 On Iteration in Bisection 9
 a: 0.00140  b:-0.00460

 -0.21512 = (-0.21607 + -0.21417)/2.0
 sum -  nocc_ = -0.00159918
 On Iteration in Bisection 10
 a: -0.00160  b:-0.00460

 -0.21464 = (-0.21512 + -0.21417)/2.0
 sum -  nocc_ = -0.00010113
 On Iteration in Bisection 11
 a: -0.00010  b:-0.00160

 -0.21441 = (-0.21464 + -0.21417)/2.0
 sum -  nocc_ = 0.00064789
 On Iteration in Bisection 12
 a: 0.00065  b:-0.00010

 -0.21452 = (-0.21464 + -0.21441)/2.0
 sum -  nocc_ = 0.00027338
 On Iteration in Bisection 13
 a: 0.00027  b:-0.00010

 -0.21458 = (-0.21464 + -0.21452)/2.0
 sum -  nocc_ = 0.00008612
 On Iteration in Bisection 14
 a: 0.00009  b:-0.00010

 -0.21461 = (-0.21464 + -0.21458)/2.0
 sum -  nocc_ = -0.00000750
 On Iteration in Bisection 15
 a: -0.00001  b:-0.00010

 -0.21460 = (-0.21461 + -0.21458)/2.0
 sum -  nocc_ = 0.00003931
 On Iteration in Bisection 16
 a: 0.00004  b:-0.00001

 -0.21461 = (-0.21461 + -0.21460)/2.0
 sum -  nocc_ = 0.00001590
 On Iteration in Bisection 17
 a: 0.00002  b:-0.00001

 -0.21461 = (-0.21461 + -0.21461)/2.0
 sum -  nocc_ = 0.00000420
 On Iteration in Bisection 18
 a: 0.00000  b:-0.00001

 -0.21461 = (-0.21461 + -0.21461)/2.0
 sum -  nocc_ = -0.00000165
 On Iteration in Bisection 19
 a: -0.00000  b:-0.00001

 -0.21461 = (-0.21461 + -0.21461)/2.0
 sum -  nocc_ = 0.00000127
 On Iteration in Bisection 20
 a: 0.00000  b:-0.00000

 -0.21461 = (-0.21461 + -0.21461)/2.0
 sum -  nocc_ = -0.00000019
 On Iteration in Bisection 21
 a: -0.00000  b:-0.00000

 -0.21461 = (-0.21461 + -0.21461)/2.0
 sum -  nocc_ = 0.00000054
 On Iteration in Bisection 22
 a: 0.00000  b:-0.00000

 -0.21461 = (-0.21461 + -0.21461)/2.0
 sum -  nocc_ = 0.00000018
 On Iteration in Bisection 23
 a: 0.00000  b:-0.00000

 -0.21461 = (-0.21461 + -0.21461)/2.0
 sum -  nocc_ = -0.00000001
 ef = -0.21461 sum = 1.00000 

 Iter: 24  T:    20000.000  val:-0.214611  sumni 0.00000
 ne = 1.0000

 iter:25  failiter:25  energy:     -1.072935762961  total:     -0.832400668147  error:     -0.000000000041
 In Bisection function HOMO = -0.346  LUMO =  1.605

 0.62983 = (-0.34562 + 1.60528)/2.0
 sum -  nocc_ = 1.81737426
 On Iteration in Bisection 0
 a: 1.81737  b:-0.48429

 0.14210 = (-0.34562 + 0.62983)/2.0
 sum -  nocc_ = 0.97262006
 On Iteration in Bisection 1
 a: 0.97262  b:-0.48429

 -0.10176 = (-0.34562 + 0.14210)/2.0
 sum -  nocc_ = 0.40797043
 On Iteration in Bisection 2
 a: 0.40797  b:-0.48429

 -0.22369 = (-0.34562 + -0.10176)/2.0
 sum -  nocc_ = -0.02860320
 On Iteration in Bisection 3
 a: -0.02860  b:-0.48429

 -0.16273 = (-0.22369 + -0.10176)/2.0
 sum -  nocc_ = 0.17004536
 On Iteration in Bisection 4
 a: 0.17005  b:-0.02860

 -0.19321 = (-0.22369 + -0.16273)/2.0
 sum -  nocc_ = 0.06782045
 On Iteration in Bisection 5
 a: 0.06782  b:-0.02860

 -0.20845 = (-0.22369 + -0.19321)/2.0
 sum -  nocc_ = 0.01938568
 On Iteration in Bisection 6
 a: 0.01939  b:-0.02860

 -0.21607 = (-0.22369 + -0.20845)/2.0
 sum -  nocc_ = -0.00459542
 On Iteration in Bisection 7
 a: -0.00460  b:-0.02860

 -0.21226 = (-0.21607 + -0.20845)/2.0
 sum -  nocc_ = 0.00738975
 On Iteration in Bisection 8
 a: 0.00739  b:-0.00460

 -0.21417 = (-0.21607 + -0.21226)/2.0
 sum -  nocc_ = 0.00139691
 On Iteration in Bisection 9
 a: 0.00140  b:-0.00460

 -0.21512 = (-0.21607 + -0.21417)/2.0
 sum -  nocc_ = -0.00159918
 On Iteration in Bisection 10
 a: -0.00160  b:-0.00460

 -0.21464 = (-0.21512 + -0.21417)/2.0
 sum -  nocc_ = -0.00010113
 On Iteration in Bisection 11
 a: -0.00010  b:-0.00160

 -0.21441 = (-0.21464 + -0.21417)/2.0
 sum -  nocc_ = 0.00064789
 On Iteration in Bisection 12
 a: 0.00065  b:-0.00010

 -0.21452 = (-0.21464 + -0.21441)/2.0
 sum -  nocc_ = 0.00027338
 On Iteration in Bisection 13
 a: 0.00027  b:-0.00010

 -0.21458 = (-0.21464 + -0.21452)/2.0
 sum -  nocc_ = 0.00008612
 On Iteration in Bisection 14
 a: 0.00009  b:-0.00010

 -0.21461 = (-0.21464 + -0.21458)/2.0
 sum -  nocc_ = -0.00000750
 On Iteration in Bisection 15
 a: -0.00001  b:-0.00010

 -0.21460 = (-0.21461 + -0.21458)/2.0
 sum -  nocc_ = 0.00003931
 On Iteration in Bisection 16
 a: 0.00004  b:-0.00001

 -0.21461 = (-0.21461 + -0.21460)/2.0
 sum -  nocc_ = 0.00001590
 On Iteration in Bisection 17
 a: 0.00002  b:-0.00001

 -0.21461 = (-0.21461 + -0.21461)/2.0
 sum -  nocc_ = 0.00000420
 On Iteration in Bisection 18
 a: 0.00000  b:-0.00001

 -0.21461 = (-0.21461 + -0.21461)/2.0
 sum -  nocc_ = -0.00000165
 On Iteration in Bisection 19
 a: -0.00000  b:-0.00001

 -0.21461 = (-0.21461 + -0.21461)/2.0
 sum -  nocc_ = 0.00000127
 On Iteration in Bisection 20
 a: 0.00000  b:-0.00000

 -0.21461 = (-0.21461 + -0.21461)/2.0
 sum -  nocc_ = -0.00000019
 On Iteration in Bisection 21
 a: -0.00000  b:-0.00000

 -0.21461 = (-0.21461 + -0.21461)/2.0
 sum -  nocc_ = 0.00000054
 On Iteration in Bisection 22
 a: 0.00000  b:-0.00000

 -0.21461 = (-0.21461 + -0.21461)/2.0
 sum -  nocc_ = 0.00000018
 On Iteration in Bisection 23
 a: 0.00000  b:-0.00000

 -0.21461 = (-0.21461 + -0.21461)/2.0
 sum -  nocc_ = -0.00000001
 ef = -0.21461 sum = 1.00000 

 Iter: 25  T:    20000.000  val:-0.214611  sumni 0.00000
 ne = 1.0000

 iter:26  failiter:26  energy:     -1.072935762976  total:     -0.832400668162  error:     -0.000000000015
 In Bisection function HOMO = -0.346  LUMO =  1.605

 0.62983 = (-0.34562 + 1.60528)/2.0
 sum -  nocc_ = 1.81737426
 On Iteration in Bisection 0
 a: 1.81737  b:-0.48429

 0.14210 = (-0.34562 + 0.62983)/2.0
 sum -  nocc_ = 0.97262006
 On Iteration in Bisection 1
 a: 0.97262  b:-0.48429

 -0.10176 = (-0.34562 + 0.14210)/2.0
 sum -  nocc_ = 0.40797043
 On Iteration in Bisection 2
 a: 0.40797  b:-0.48429

 -0.22369 = (-0.34562 + -0.10176)/2.0
 sum -  nocc_ = -0.02860320
 On Iteration in Bisection 3
 a: -0.02860  b:-0.48429

 -0.16273 = (-0.22369 + -0.10176)/2.0
 sum -  nocc_ = 0.17004536
 On Iteration in Bisection 4
 a: 0.17005  b:-0.02860

 -0.19321 = (-0.22369 + -0.16273)/2.0
 sum -  nocc_ = 0.06782045
 On Iteration in Bisection 5
 a: 0.06782  b:-0.02860

 -0.20845 = (-0.22369 + -0.19321)/2.0
 sum -  nocc_ = 0.01938568
 On Iteration in Bisection 6
 a: 0.01939  b:-0.02860

 -0.21607 = (-0.22369 + -0.20845)/2.0
 sum -  nocc_ = -0.00459542
 On Iteration in Bisection 7
 a: -0.00460  b:-0.02860

 -0.21226 = (-0.21607 + -0.20845)/2.0
 sum -  nocc_ = 0.00738975
 On Iteration in Bisection 8
 a: 0.00739  b:-0.00460

 -0.21417 = (-0.21607 + -0.21226)/2.0
 sum -  nocc_ = 0.00139691
 On Iteration in Bisection 9
 a: 0.00140  b:-0.00460

 -0.21512 = (-0.21607 + -0.21417)/2.0
 sum -  nocc_ = -0.00159918
 On Iteration in Bisection 10
 a: -0.00160  b:-0.00460

 -0.21464 = (-0.21512 + -0.21417)/2.0
 sum -  nocc_ = -0.00010113
 On Iteration in Bisection 11
 a: -0.00010  b:-0.00160

 -0.21441 = (-0.21464 + -0.21417)/2.0
 sum -  nocc_ = 0.00064789
 On Iteration in Bisection 12
 a: 0.00065  b:-0.00010

 -0.21452 = (-0.21464 + -0.21441)/2.0
 sum -  nocc_ = 0.00027338
 On Iteration in Bisection 13
 a: 0.00027  b:-0.00010

 -0.21458 = (-0.21464 + -0.21452)/2.0
 sum -  nocc_ = 0.00008612
 On Iteration in Bisection 14
 a: 0.00009  b:-0.00010

 -0.21461 = (-0.21464 + -0.21458)/2.0
 sum -  nocc_ = -0.00000750
 On Iteration in Bisection 15
 a: -0.00001  b:-0.00010

 -0.21460 = (-0.21461 + -0.21458)/2.0
 sum -  nocc_ = 0.00003931
 On Iteration in Bisection 16
 a: 0.00004  b:-0.00001

 -0.21461 = (-0.21461 + -0.21460)/2.0
 sum -  nocc_ = 0.00001590
 On Iteration in Bisection 17
 a: 0.00002  b:-0.00001

 -0.21461 = (-0.21461 + -0.21461)/2.0
 sum -  nocc_ = 0.00000420
 On Iteration in Bisection 18
 a: 0.00000  b:-0.00001

 -0.21461 = (-0.21461 + -0.21461)/2.0
 sum -  nocc_ = -0.00000165
 On Iteration in Bisection 19
 a: -0.00000  b:-0.00001

 -0.21461 = (-0.21461 + -0.21461)/2.0
 sum -  nocc_ = 0.00000127
 On Iteration in Bisection 20
 a: 0.00000  b:-0.00000

 -0.21461 = (-0.21461 + -0.21461)/2.0
 sum -  nocc_ = -0.00000019
 On Iteration in Bisection 21
 a: -0.00000  b:-0.00000

 -0.21461 = (-0.21461 + -0.21461)/2.0
 sum -  nocc_ = 0.00000054
 On Iteration in Bisection 22
 a: 0.00000  b:-0.00000

 -0.21461 = (-0.21461 + -0.21461)/2.0
 sum -  nocc_ = 0.00000018
 On Iteration in Bisection 23
 a: 0.00000  b:-0.00000

 -0.21461 = (-0.21461 + -0.21461)/2.0
 sum -  nocc_ = -0.00000001
 ef = -0.21461 sum = 1.00000 

 Iter: 26  T:    20000.000  val:-0.214611  sumni 0.00000
 ne = 1.0000

 iter:27  failiter:27  energy:     -1.072935762981  total:     -0.832400668168  error:     -0.000000000005
 In Bisection function HOMO = -0.346  LUMO =  1.605

 0.62983 = (-0.34562 + 1.60528)/2.0
 sum -  nocc_ = 1.81737426
 On Iteration in Bisection 0
 a: 1.81737  b:-0.48429

 0.14210 = (-0.34562 + 0.62983)/2.0
 sum -  nocc_ = 0.97262006
 On Iteration in Bisection 1
 a: 0.97262  b:-0.48429

 -0.10176 = (-0.34562 + 0.14210)/2.0
 sum -  nocc_ = 0.40797043
 On Iteration in Bisection 2
 a: 0.40797  b:-0.48429

 -0.22369 = (-0.34562 + -0.10176)/2.0
 sum -  nocc_ = -0.02860320
 On Iteration in Bisection 3
 a: -0.02860  b:-0.48429

 -0.16273 = (-0.22369 + -0.10176)/2.0
 sum -  nocc_ = 0.17004536
 On Iteration in Bisection 4
 a: 0.17005  b:-0.02860

 -0.19321 = (-0.22369 + -0.16273)/2.0
 sum -  nocc_ = 0.06782045
 On Iteration in Bisection 5
 a: 0.06782  b:-0.02860

 -0.20845 = (-0.22369 + -0.19321)/2.0
 sum -  nocc_ = 0.01938568
 On Iteration in Bisection 6
 a: 0.01939  b:-0.02860

 -0.21607 = (-0.22369 + -0.20845)/2.0
 sum -  nocc_ = -0.00459542
 On Iteration in Bisection 7
 a: -0.00460  b:-0.02860

 -0.21226 = (-0.21607 + -0.20845)/2.0
 sum -  nocc_ = 0.00738975
 On Iteration in Bisection 8
 a: 0.00739  b:-0.00460

 -0.21417 = (-0.21607 + -0.21226)/2.0
 sum -  nocc_ = 0.00139691
 On Iteration in Bisection 9
 a: 0.00140  b:-0.00460

 -0.21512 = (-0.21607 + -0.21417)/2.0
 sum -  nocc_ = -0.00159918
 On Iteration in Bisection 10
 a: -0.00160  b:-0.00460

 -0.21464 = (-0.21512 + -0.21417)/2.0
 sum -  nocc_ = -0.00010113
 On Iteration in Bisection 11
 a: -0.00010  b:-0.00160

 -0.21441 = (-0.21464 + -0.21417)/2.0
 sum -  nocc_ = 0.00064789
 On Iteration in Bisection 12
 a: 0.00065  b:-0.00010

 -0.21452 = (-0.21464 + -0.21441)/2.0
 sum -  nocc_ = 0.00027338
 On Iteration in Bisection 13
 a: 0.00027  b:-0.00010

 -0.21458 = (-0.21464 + -0.21452)/2.0
 sum -  nocc_ = 0.00008612
 On Iteration in Bisection 14
 a: 0.00009  b:-0.00010

 -0.21461 = (-0.21464 + -0.21458)/2.0
 sum -  nocc_ = -0.00000750
 On Iteration in Bisection 15
 a: -0.00001  b:-0.00010

 -0.21460 = (-0.21461 + -0.21458)/2.0
 sum -  nocc_ = 0.00003931
 On Iteration in Bisection 16
 a: 0.00004  b:-0.00001

 -0.21461 = (-0.21461 + -0.21460)/2.0
 sum -  nocc_ = 0.00001590
 On Iteration in Bisection 17
 a: 0.00002  b:-0.00001

 -0.21461 = (-0.21461 + -0.21461)/2.0
 sum -  nocc_ = 0.00000420
 On Iteration in Bisection 18
 a: 0.00000  b:-0.00001

 -0.21461 = (-0.21461 + -0.21461)/2.0
 sum -  nocc_ = -0.00000165
 On Iteration in Bisection 19
 a: -0.00000  b:-0.00001

 -0.21461 = (-0.21461 + -0.21461)/2.0
 sum -  nocc_ = 0.00000127
 On Iteration in Bisection 20
 a: 0.00000  b:-0.00000

 -0.21461 = (-0.21461 + -0.21461)/2.0
 sum -  nocc_ = -0.00000019
 On Iteration in Bisection 21
 a: -0.00000  b:-0.00000

 -0.21461 = (-0.21461 + -0.21461)/2.0
 sum -  nocc_ = 0.00000054
 On Iteration in Bisection 22
 a: 0.00000  b:-0.00000

 -0.21461 = (-0.21461 + -0.21461)/2.0
 sum -  nocc_ = 0.00000018
 On Iteration in Bisection 23
 a: 0.00000  b:-0.00000

 -0.21461 = (-0.21461 + -0.21461)/2.0
 sum -  nocc_ = -0.00000001
 ef = -0.21461 sum = 1.00000 

 Iter: 27  T:    20000.000  val:-0.214611  sumni 0.00000
 ne = 1.0000

 iter:28  failiter:28  energy:     -1.072935762983  total:     -0.832400668170  error:     -0.000000000002
 In Bisection function HOMO = -0.346  LUMO =  1.605

 0.62983 = (-0.34562 + 1.60528)/2.0
 sum -  nocc_ = 1.81737426
 On Iteration in Bisection 0
 a: 1.81737  b:-0.48429

 0.14210 = (-0.34562 + 0.62983)/2.0
 sum -  nocc_ = 0.97262006
 On Iteration in Bisection 1
 a: 0.97262  b:-0.48429

 -0.10176 = (-0.34562 + 0.14210)/2.0
 sum -  nocc_ = 0.40797043
 On Iteration in Bisection 2
 a: 0.40797  b:-0.48429

 -0.22369 = (-0.34562 + -0.10176)/2.0
 sum -  nocc_ = -0.02860320
 On Iteration in Bisection 3
 a: -0.02860  b:-0.48429

 -0.16273 = (-0.22369 + -0.10176)/2.0
 sum -  nocc_ = 0.17004536
 On Iteration in Bisection 4
 a: 0.17005  b:-0.02860

 -0.19321 = (-0.22369 + -0.16273)/2.0
 sum -  nocc_ = 0.06782045
 On Iteration in Bisection 5
 a: 0.06782  b:-0.02860

 -0.20845 = (-0.22369 + -0.19321)/2.0
 sum -  nocc_ = 0.01938568
 On Iteration in Bisection 6
 a: 0.01939  b:-0.02860

 -0.21607 = (-0.22369 + -0.20845)/2.0
 sum -  nocc_ = -0.00459542
 On Iteration in Bisection 7
 a: -0.00460  b:-0.02860

 -0.21226 = (-0.21607 + -0.20845)/2.0
 sum -  nocc_ = 0.00738975
 On Iteration in Bisection 8
 a: 0.00739  b:-0.00460

 -0.21417 = (-0.21607 + -0.21226)/2.0
 sum -  nocc_ = 0.00139691
 On Iteration in Bisection 9
 a: 0.00140  b:-0.00460

 -0.21512 = (-0.21607 + -0.21417)/2.0
 sum -  nocc_ = -0.00159918
 On Iteration in Bisection 10
 a: -0.00160  b:-0.00460

 -0.21464 = (-0.21512 + -0.21417)/2.0
 sum -  nocc_ = -0.00010113
 On Iteration in Bisection 11
 a: -0.00010  b:-0.00160

 -0.21441 = (-0.21464 + -0.21417)/2.0
 sum -  nocc_ = 0.00064789
 On Iteration in Bisection 12
 a: 0.00065  b:-0.00010

 -0.21452 = (-0.21464 + -0.21441)/2.0
 sum -  nocc_ = 0.00027338
 On Iteration in Bisection 13
 a: 0.00027  b:-0.00010

 -0.21458 = (-0.21464 + -0.21452)/2.0
 sum -  nocc_ = 0.00008612
 On Iteration in Bisection 14
 a: 0.00009  b:-0.00010

 -0.21461 = (-0.21464 + -0.21458)/2.0
 sum -  nocc_ = -0.00000750
 On Iteration in Bisection 15
 a: -0.00001  b:-0.00010

 -0.21460 = (-0.21461 + -0.21458)/2.0
 sum -  nocc_ = 0.00003931
 On Iteration in Bisection 16
 a: 0.00004  b:-0.00001

 -0.21461 = (-0.21461 + -0.21460)/2.0
 sum -  nocc_ = 0.00001590
 On Iteration in Bisection 17
 a: 0.00002  b:-0.00001

 -0.21461 = (-0.21461 + -0.21461)/2.0
 sum -  nocc_ = 0.00000420
 On Iteration in Bisection 18
 a: 0.00000  b:-0.00001

 -0.21461 = (-0.21461 + -0.21461)/2.0
 sum -  nocc_ = -0.00000165
 On Iteration in Bisection 19
 a: -0.00000  b:-0.00001

 -0.21461 = (-0.21461 + -0.21461)/2.0
 sum -  nocc_ = 0.00000127
 On Iteration in Bisection 20
 a: 0.00000  b:-0.00000

 -0.21461 = (-0.21461 + -0.21461)/2.0
 sum -  nocc_ = -0.00000019
 On Iteration in Bisection 21
 a: -0.00000  b:-0.00000

 -0.21461 = (-0.21461 + -0.21461)/2.0
 sum -  nocc_ = 0.00000054
 On Iteration in Bisection 22
 a: 0.00000  b:-0.00000

 -0.21461 = (-0.21461 + -0.21461)/2.0
 sum -  nocc_ = 0.00000018
 On Iteration in Bisection 23
 a: 0.00000  b:-0.00000

 -0.21461 = (-0.21461 + -0.21461)/2.0
 sum -  nocc_ = -0.00000001
 ef = -0.21461 sum = 1.00000 

 Iter: 28  T:    20000.000  val:-0.214611  sumni 0.00000
 ne = 1.0000

 iter:29  failiter:29  energy:     -1.072935762984  total:     -0.832400668170  error:     -0.000000000001
 FTHFEnergy =    -0.832401
 FD_dis[0] = 0.88781895 with -0.345624 eig value
 FD_dis[1] = 0.11217880 with -0.083597 eig value
 FD_dis[2] = 0.00000116 with 0.650796 eig value
 FD_dis[3] = 0.00000108 with 0.655663 eig value
 FD_dis[4] = 0.00000000 with 1.403473 eig value
 FD_dis[5] = 0.00000000 with 1.460053 eig value
 FD_dis[6] = 0.00000000 with 1.460053 eig value
 FD_dis[7] = 0.00000000 with 1.481367 eig value
 FD_dis[8] = 0.00000000 with 1.481367 eig value
 FD_dis[9] = 0.00000000 with 1.605277 eig value
*** PSI4 exiting successfully. Buy a developer a beer!
