    -----------------------------------------------------------------------
          PSI4: An Open-Source Ab Initio Electronic Structure Package
                              PSI 4.0 Driver

               Git: Rev {master} 556e8139d3cfa1f96ccffe2cdf22cc56a185d2b2

    J. M. Turney, A. C. Simmonett, R. M. Parrish, E. G. Hohenstein,
    F. A. Evangelista, J. T. Fermann, B. J. Mintz, L. A. Burns, J. J. Wilke,
    M. L. Abrams, N. J. Russ, M. L. Leininger, C. L. Janssen, E. T. Seidl,
    W. D. Allen, H. F. Schaefer, R. A. King, E. F. Valeev, C. D. Sherrill,
    and T. D. Crawford, WIREs Comput. Mol. Sci. 2, 556-565 (2012)
    (doi: 10.1002/wcms.93)

                         Additional Contributions by
    A. E. DePrince, M. Saitow, U. Bozkaya, A. Yu. Sokolov
    -----------------------------------------------------------------------

    Process ID:  11940
    PSI4DATADIR: /Users/kevinhannon/Programs/psi4cmake/psi4/lib
    Memory level set to 256.000 MB

  ==> Input File <==

--------------------------------------------------------------------------

# PYTHONPATH must include directory above plugin directory.
#     Define either externally or here, then import plugin.
sys.path.insert(0, '/Users/kevinhannon/Programs/Quantum_Programs/Quantum-Programs/GS/')
import scf

molecule {
0 1
H
H 1 1.50000
symmetry c1
units angstrom
}


set {
  basis cc-pvdz
  reference rhf
  scf_type  pk
}

set scf {
  DO_FTHF true
  MAX_ITER 130
  MAX_TEMP 100
  TEMP_INCREMENT 0
  bisect  true
  bisect_iter  40
}
energy('rhf')

energy('scf')


--------------------------------------------------------------------------

*** tstart() called on Kevins-MacBook-Pro.local
*** at Fri Apr 10 18:02:08 2015

/Users/kevinhannon/Programs/Quantum_Programs/Quantum-Programs/GS/scf/scf.so loaded.

*** tstart() called on Kevins-MacBook-Pro.local
*** at Fri Apr 10 18:02:08 2015


         ---------------------------------------------------------
                                   SCF
            by Justin Turney, Rob Parrish, and Andy Simmonett
                              RHF Reference
                        1 Threads,    256 MiB Core
         ---------------------------------------------------------

  ==> Geometry <==

    Molecular point group: c1
    Full point group: D_inf_h

    Geometry (in Angstrom), charge = 0, multiplicity = 1:

       Center              X                  Y                   Z       
    ------------   -----------------  -----------------  -----------------
           H          0.000000000000     0.000000000000    -0.750000000000
           H          0.000000000000     0.000000000000     0.750000000000

  Running in c1 symmetry.

  Rotational constants: A = ************  B =     14.86821  C =     14.86821 [cm^-1]
  Rotational constants: A = ************  B = 445737.86910  C = 445737.86910 [MHz]
  Nuclear repulsion =    0.352784805726667

  Charge       = 0
  Multiplicity = 1
  Electrons    = 2
  Nalpha       = 1
  Nbeta        = 1

  ==> Algorithm <==

  SCF Algorithm Type is PK.
  DIIS enabled.
  MOM disabled.
  Fractional occupation disabled.
  Guess Type is CORE.
  Energy threshold   = 1.00e-06
  Density threshold  = 1.00e-06
  Integral threshold = 0.00e+00

  ==> Primary Basis <==

  Basis Set: CC-PVDZ
    Number of shells: 6
    Number of basis function: 10
    Number of Cartesian functions: 10
    Spherical Harmonics?: true
    Max angular momentum: 1

  ==> Pre-Iterations <==

   -------------------------------------------------------
    Irrep   Nso     Nmo     Nalpha   Nbeta   Ndocc  Nsocc
   -------------------------------------------------------
     A         10      10       0       0       0       0
   -------------------------------------------------------
    Total      10      10       1       1       1       0
   -------------------------------------------------------

  Starting with a DF guess...

 OEINTS: Overlap, kinetic, potential, dipole, and quadrupole integrals
         stored in file 35.

  ==> Integral Setup <==

  ==> DFJK: Density-Fitted J/K Matrices <==

    J tasked:                  Yes
    K tasked:                  Yes
    wK tasked:                  No
    OpenMP threads:              1
    Integrals threads:           1
    Memory (MB):               183
    Algorithm:                Core
    Integral Cache:           NONE
    Schwarz Cutoff:          1E-12
    Fitting Condition:       1E-12

   => Auxiliary Basis Set <=

  Basis Set: 
    Number of shells: 18
    Number of basis function: 46
    Number of Cartesian functions: 50
    Spherical Harmonics?: true
    Max angular momentum: 2

  Minimum eigenvalue in the overlap matrix is 1.7423316118E-01.
  Using Symmetric Orthogonalization.
  SCF Guess: Core (One-Electron) Hamiltonian.

  ==> Iterations <==

                           Total Energy        Delta E     RMS |[F,P]|

   @DF-RHF iter   1:    -0.96950381100609   -9.69504e-01   1.73518e-02 
   @DF-RHF iter   2:    -1.00120441217792   -3.17006e-02   2.99924e-03 DIIS
   @DF-RHF iter   3:    -1.00219757730534   -9.93165e-04   1.09185e-04 DIIS
   @DF-RHF iter   4:    -1.00219852719153   -9.49886e-07   2.19459e-06 DIIS
   @DF-RHF iter   5:    -1.00219852773054   -5.39008e-10   4.78232e-10 DIIS

  DF guess converged.

  ==> Integral Setup <==

 MINTS: Wrapper to libmints.
   by Justin Turney

   Calculation information:
      Number of atoms:                   2
      Number of AO shells:               6
      Number of SO shells:               6
      Number of primitives:             10
      Number of atomic orbitals:        10
      Number of basis functions:        10

      Number of irreps:                  1
      Integral cutoff                 0.00e+00
      Number of functions per irrep: [  10 ]

 OEINTS: Overlap, kinetic, potential, dipole, and quadrupole integrals
         stored in file 35.

      Computing two-electron integrals...done
      Computed 512 non-zero two-electron integrals.
        Stored in file 33.

	Batch   1 pq = [       0,      55] index = [             0,1540]
  ==> DiskJK: Disk-Based J/K Matrices <==

    J tasked:                  Yes
    K tasked:                  Yes
    wK tasked:                  No
    Memory (MB):               183
    Schwarz Cutoff:          1E-12

   @RHF iter   6:    -1.00219274396530    5.78377e-06   2.06554e-06 DIIS
   @RHF iter   7:    -1.00219274425277   -2.87472e-10   3.23279e-07 DIIS

  ==> Post-Iterations <==

    Orbital Energies (a.u.)
    -----------------------

    Doubly Occupied:                                                      

       1A     -0.439163  

    Virtual:                                                              

       2A      0.040297     3A      0.643663     4A      0.675709  
       5A      1.277133     6A      1.383016     7A      1.383016  
       8A      1.617143     9A      1.617143    10A      2.132723  

    Final Occupation by Irrep:
              A 
    DOCC [     1 ]

  Energy converged.

  @RHF Final Energy:    -1.00219274425277

   => Energetics <=

    Nuclear Repulsion Energy =              0.3527848057266667
    One-Electron Energy =                  -1.8316287785853680
    Two-Electron Energy =                   0.4766512286059328
    DFT Exchange-Correlation Energy =       0.0000000000000000
    Empirical Dispersion Energy =           0.0000000000000000
    PCM Polarization Energy =               0.0000000000000000
    EFP Energy =                            0.0000000000000000
    Total Energy =                         -1.0021927442527685

    Alert: EFP and PCM quantities not currently incorporated into SCF psivars.

Properties will be evaluated at   0.000000,   0.000000,   0.000000 Bohr
  ==> Properties <==


Properties computed using the SCF density matrix

  Nuclear Dipole Moment: (a.u.)
     X:     0.0000      Y:     0.0000      Z:     0.0000

  Electronic Dipole Moment: (a.u.)
     X:    -0.0000      Y:     0.0000      Z:     0.0000

  Dipole Moment: (a.u.)
     X:    -0.0000      Y:     0.0000      Z:     0.0000     Total:     0.0000

  Dipole Moment: (Debye)
     X:    -0.0000      Y:     0.0000      Z:     0.0000     Total:     0.0000


  Saving occupied orbitals to File 180.

*** tstop() called on Kevins-MacBook-Pro.local at Fri Apr 10 18:02:08 2015
Module time:
	user time   =       0.19 seconds =       0.00 minutes
	system time =       0.01 seconds =       0.00 minutes
	total time  =          0 seconds =       0.00 minutes
Total time:
	user time   =       0.21 seconds =       0.00 minutes
	system time =       0.01 seconds =       0.00 minutes
	total time  =          0 seconds =       0.00 minutes

*** tstart() called on Kevins-MacBook-Pro.local
*** at Fri Apr 10 18:02:08 2015


         ---------------------------------------------------------
                                   SCF
            by Justin Turney, Rob Parrish, and Andy Simmonett
                              RHF Reference
                        1 Threads,    256 MiB Core
         ---------------------------------------------------------

  ==> Geometry <==

    Molecular point group: c1
    Full point group: D_inf_h

    Geometry (in Angstrom), charge = 0, multiplicity = 1:

       Center              X                  Y                   Z       
    ------------   -----------------  -----------------  -----------------
           H          0.000000000000     0.000000000000    -0.750000000000
           H          0.000000000000     0.000000000000     0.750000000000

  Running in c1 symmetry.

  Rotational constants: A = ************  B =     14.86821  C =     14.86821 [cm^-1]
  Rotational constants: A = ************  B = 445737.86910  C = 445737.86910 [MHz]
  Nuclear repulsion =    0.352784805726667

  Charge       = 0
  Multiplicity = 1
  Electrons    = 2
  Nalpha       = 1
  Nbeta        = 1

  ==> Algorithm <==

  SCF Algorithm Type is PK.
  DIIS enabled.
  MOM disabled.
  Fractional occupation disabled.
  Guess Type is CORE.
  Energy threshold   = 1.00e-08
  Density threshold  = 1.00e-08
  Integral threshold = 0.00e+00

  ==> Primary Basis <==

  Basis Set: CC-PVDZ
    Number of shells: 6
    Number of basis function: 10
    Number of Cartesian functions: 10
    Spherical Harmonics?: true
    Max angular momentum: 1

  ==> Pre-Iterations <==

   -------------------------------------------------------
    Irrep   Nso     Nmo     Nalpha   Nbeta   Ndocc  Nsocc
   -------------------------------------------------------
     A         10      10       0       0       0       0
   -------------------------------------------------------
    Total      10      10       1       1       1       0
   -------------------------------------------------------

  Starting with a DF guess...

 OEINTS: Overlap, kinetic, potential, dipole, and quadrupole integrals
         stored in file 35.

  ==> Integral Setup <==

  ==> DFJK: Density-Fitted J/K Matrices <==

    J tasked:                  Yes
    K tasked:                  Yes
    wK tasked:                  No
    OpenMP threads:              1
    Integrals threads:           1
    Memory (MB):               183
    Algorithm:                Core
    Integral Cache:           NONE
    Schwarz Cutoff:          1E-12
    Fitting Condition:       1E-12

   => Auxiliary Basis Set <=

  Basis Set: 
    Number of shells: 18
    Number of basis function: 46
    Number of Cartesian functions: 50
    Spherical Harmonics?: true
    Max angular momentum: 2

  Minimum eigenvalue in the overlap matrix is 1.7423316118E-01.
  Using Symmetric Orthogonalization.
  SCF Guess: Core (One-Electron) Hamiltonian.

  ==> Iterations <==

                           Total Energy        Delta E     RMS |[F,P]|

   @DF-RHF iter   1:    -0.96950381100609   -9.69504e-01   1.73518e-02 
   @DF-RHF iter   2:    -1.00120441217792   -3.17006e-02   2.99924e-03 DIIS
   @DF-RHF iter   3:    -1.00219757730534   -9.93165e-04   1.09185e-04 DIIS
   @DF-RHF iter   4:    -1.00219852719153   -9.49886e-07   2.19459e-06 DIIS
   @DF-RHF iter   5:    -1.00219852773054   -5.39008e-10   4.78231e-10 DIIS

  DF guess converged.

  ==> Integral Setup <==

 MINTS: Wrapper to libmints.
   by Justin Turney

   Calculation information:
      Number of atoms:                   2
      Number of AO shells:               6
      Number of SO shells:               6
      Number of primitives:             10
      Number of atomic orbitals:        10
      Number of basis functions:        10

      Number of irreps:                  1
      Integral cutoff                 0.00e+00
      Number of functions per irrep: [  10 ]

 OEINTS: Overlap, kinetic, potential, dipole, and quadrupole integrals
         stored in file 35.

      Computing two-electron integrals...done
      Computed 512 non-zero two-electron integrals.
        Stored in file 33.

	Batch   1 pq = [       0,      55] index = [             0,1540]
  ==> DiskJK: Disk-Based J/K Matrices <==

    J tasked:                  Yes
    K tasked:                  Yes
    wK tasked:                  No
    Memory (MB):               183
    Schwarz Cutoff:          1E-12

   @RHF iter   6:    -1.00219274396530    5.78377e-06   2.06554e-06 DIIS
   @RHF iter   7:    -1.00219274425277   -2.87472e-10   3.23279e-07 DIIS
   @RHF iter   8:    -1.00219274426003   -7.26641e-12   6.85301e-09 DIIS

  ==> Post-Iterations <==

    Orbital Energies (a.u.)
    -----------------------

    Doubly Occupied:                                                      

       1A     -0.439163  

    Virtual:                                                              

       2A      0.040297     3A      0.643663     4A      0.675709  
       5A      1.277133     6A      1.383016     7A      1.383016  
       8A      1.617143     9A      1.617143    10A      2.132723  

    Final Occupation by Irrep:
              A 
    DOCC [     1 ]

  Energy converged.

  @RHF Final Energy:    -1.00219274426003

   => Energetics <=

    Nuclear Repulsion Energy =              0.3527848057266667
    One-Electron Energy =                  -1.8316286126695487
    Two-Electron Energy =                   0.4766510626828476
    DFT Exchange-Correlation Energy =       0.0000000000000000
    Empirical Dispersion Energy =           0.0000000000000000
    PCM Polarization Energy =               0.0000000000000000
    EFP Energy =                            0.0000000000000000
    Total Energy =                         -1.0021927442600345

    Alert: EFP and PCM quantities not currently incorporated into SCF psivars.

Properties will be evaluated at   0.000000,   0.000000,   0.000000 Bohr
  ==> Properties <==


Properties computed using the SCF density matrix

  Nuclear Dipole Moment: (a.u.)
     X:     0.0000      Y:     0.0000      Z:     0.0000

  Electronic Dipole Moment: (a.u.)
     X:    -0.0000      Y:     0.0000      Z:     0.0000

  Dipole Moment: (a.u.)
     X:    -0.0000      Y:     0.0000      Z:     0.0000     Total:     0.0000

  Dipole Moment: (Debye)
     X:    -0.0000      Y:     0.0000      Z:     0.0000     Total:     0.0000


  Saving occupied orbitals to File 180.

*** tstop() called on Kevins-MacBook-Pro.local at Fri Apr 10 18:02:08 2015
Module time:
	user time   =       0.20 seconds =       0.00 minutes
	system time =       0.01 seconds =       0.00 minutes
	total time  =          0 seconds =       0.00 minutes
Total time:
	user time   =       0.42 seconds =       0.01 minutes
	system time =       0.02 seconds =       0.00 minutes
	total time  =          0 seconds =       0.00 minutes
Reading options from the SCF block
Calling plugin scf.so.
    Molecular point group: c1
    Full point group: D_inf_h

    Geometry (in Angstrom), charge = 0, multiplicity = 1:

       Center              X                  Y                   Z       
    ------------   -----------------  -----------------  -----------------
           H          0.000000000000     0.000000000000    -0.750000000000
           H          0.000000000000     0.000000000000     0.750000000000


    Nuclear repulsion energy:       0.35278481

  ## Overlap (Symmetry 0) ##
  Irrep: 1 Size: 10 x 10

                 1                   2                   3                   4                   5

    1     1.00000000000000     0.68486025149275     0.00000000000000     0.00000000000000     0.00000000000000
    2     0.68486025149275     1.00000000000000     0.00000000000000     0.00000000000000     0.00000000000000
    3     0.00000000000000     0.00000000000000     1.00000000000000     0.00000000000000     0.00000000000000
    4     0.00000000000000     0.00000000000000     0.00000000000000     1.00000000000000     0.00000000000000
    5     0.00000000000000     0.00000000000000     0.00000000000000     0.00000000000000     1.00000000000000
    6     0.12555625473227     0.31213121488208     0.16545621623524     0.00000000000000     0.00000000000000
    7     0.31213121488208     0.61254758384786     0.17631880419604     0.00000000000000     0.00000000000000
    8    -0.16545621623524    -0.17631880419604    -0.26093418508064     0.00000000000000     0.00000000000000
    9     0.00000000000000     0.00000000000000     0.00000000000000     0.05389677315178     0.00000000000000
   10     0.00000000000000     0.00000000000000     0.00000000000000     0.00000000000000     0.05389677315178

                 6                   7                   8                   9                  10

    1     0.12555625473227     0.31213121488208    -0.16545621623524     0.00000000000000     0.00000000000000
    2     0.31213121488208     0.61254758384786    -0.17631880419604     0.00000000000000     0.00000000000000
    3     0.16545621623524     0.17631880419604    -0.26093418508064     0.00000000000000     0.00000000000000
    4     0.00000000000000     0.00000000000000     0.00000000000000     0.05389677315178     0.00000000000000
    5     0.00000000000000     0.00000000000000     0.00000000000000     0.00000000000000     0.05389677315178
    6     1.00000000000000     0.68486025149275    -0.00000000000000     0.00000000000000     0.00000000000000
    7     0.68486025149275     1.00000000000000    -0.00000000000000     0.00000000000000     0.00000000000000
    8    -0.00000000000000    -0.00000000000000     1.00000000000000     0.00000000000000     0.00000000000000
    9     0.00000000000000     0.00000000000000     0.00000000000000     1.00000000000000     0.00000000000000
   10     0.00000000000000     0.00000000000000     0.00000000000000     0.00000000000000     1.00000000000000



  ## Kinetic (Symmetry 0) ##
  Irrep: 1 Size: 10 x 10

                 1                   2                   3                   4                   5

    1     0.96945722711242     0.20123413106538     0.00000000000000     0.00000000000000     0.00000000000000
    2     0.20123413106538     0.18300000000000     0.00000000000000     0.00000000000000     0.00000000000000
    3     0.00000000000000     0.00000000000000     1.81750000000000     0.00000000000000     0.00000000000000
    4     0.00000000000000     0.00000000000000     0.00000000000000     1.81750000000000     0.00000000000000
    5     0.00000000000000     0.00000000000000     0.00000000000000     0.00000000000000     1.81750000000000
    6    -0.02953697840357     0.04344078209494     0.00528400889563     0.00000000000000     0.00000000000000
    7     0.04344078209494     0.07546849903915     0.06117603179997     0.00000000000000     0.00000000000000
    8    -0.00528400889563    -0.06117603179997    -0.14907858121082     0.00000000000000     0.00000000000000
    9     0.00000000000000     0.00000000000000     0.00000000000000    -0.01648366811412     0.00000000000000
   10     0.00000000000000     0.00000000000000     0.00000000000000     0.00000000000000    -0.01648366811412

                 6                   7                   8                   9                  10

    1    -0.02953697840357     0.04344078209494    -0.00528400889563     0.00000000000000     0.00000000000000
    2     0.04344078209494     0.07546849903915    -0.06117603179997     0.00000000000000     0.00000000000000
    3     0.00528400889563     0.06117603179997    -0.14907858121082     0.00000000000000     0.00000000000000
    4     0.00000000000000     0.00000000000000     0.00000000000000    -0.01648366811412     0.00000000000000
    5     0.00000000000000     0.00000000000000     0.00000000000000     0.00000000000000    -0.01648366811412
    6     0.96945722711242     0.20123413106538    -0.00000000000000     0.00000000000000     0.00000000000000
    7     0.20123413106538     0.18300000000000    -0.00000000000000     0.00000000000000     0.00000000000000
    8    -0.00000000000000    -0.00000000000000     1.81750000000000     0.00000000000000     0.00000000000000
    9     0.00000000000000     0.00000000000000     0.00000000000000     1.81750000000000     0.00000000000000
   10     0.00000000000000     0.00000000000000     0.00000000000000     0.00000000000000     1.81750000000000



  ## Potential (Symmetry 0) ##
  Irrep: 1 Size: 10 x 10

                 1                   2                   3                   4                   5

    1    -1.73060997640687    -0.89077011804396    -0.07827815482460     0.00000000000000     0.00000000000000
    2    -0.89077011804396    -0.89334021504932    -0.07319641202443     0.00000000000000     0.00000000000000
    3    -0.07827815482460    -0.07319641202443    -1.29004978757020     0.00000000000000     0.00000000000000
    4     0.00000000000000     0.00000000000000     0.00000000000000    -1.24476715649066     0.00000000000000
    5     0.00000000000000     0.00000000000000     0.00000000000000     0.00000000000000    -1.24476715649066
    6    -0.17548660385617    -0.41097574339878    -0.22466927002770     0.00000000000000     0.00000000000000
    7    -0.41097574339878    -0.58593942311817    -0.23386637789362     0.00000000000000     0.00000000000000
    8     0.22466927002770     0.23386637789362     0.34742911081270     0.00000000000000     0.00000000000000
    9     0.00000000000000     0.00000000000000     0.00000000000000    -0.06340215447840     0.00000000000000
   10     0.00000000000000     0.00000000000000     0.00000000000000     0.00000000000000    -0.06340215447840

                 6                   7                   8                   9                  10

    1    -0.17548660385617    -0.41097574339878     0.22466927002770     0.00000000000000     0.00000000000000
    2    -0.41097574339878    -0.58593942311817     0.23386637789362     0.00000000000000     0.00000000000000
    3    -0.22466927002770    -0.23386637789362     0.34742911081270     0.00000000000000     0.00000000000000
    4     0.00000000000000     0.00000000000000     0.00000000000000    -0.06340215447840     0.00000000000000
    5     0.00000000000000     0.00000000000000     0.00000000000000     0.00000000000000    -0.06340215447840
    6    -1.73060997640687    -0.89077011804396     0.07827815482460     0.00000000000000     0.00000000000000
    7    -0.89077011804396    -0.89334021504932     0.07319641202443     0.00000000000000     0.00000000000000
    8     0.07827815482460     0.07319641202443    -1.29004978757020     0.00000000000000     0.00000000000000
    9     0.00000000000000     0.00000000000000     0.00000000000000    -1.24476715649066     0.00000000000000
   10     0.00000000000000     0.00000000000000     0.00000000000000     0.00000000000000    -1.24476715649066



  ## One Electron Ints (Symmetry 0) ##
  Irrep: 1 Size: 10 x 10

                 1                   2                   3                   4                   5

    1    -0.76115274929445    -0.68953598697857    -0.07827815482460     0.00000000000000     0.00000000000000
    2    -0.68953598697857    -0.71034021504932    -0.07319641202443     0.00000000000000     0.00000000000000
    3    -0.07827815482460    -0.07319641202443     0.52745021242980     0.00000000000000     0.00000000000000
    4     0.00000000000000     0.00000000000000     0.00000000000000     0.57273284350934     0.00000000000000
    5     0.00000000000000     0.00000000000000     0.00000000000000     0.00000000000000     0.57273284350934
    6    -0.20502358225974    -0.36753496130384    -0.21938526113207     0.00000000000000     0.00000000000000
    7    -0.36753496130384    -0.51047092407902    -0.17269034609365     0.00000000000000     0.00000000000000
    8     0.21938526113207     0.17269034609365     0.19835052960188     0.00000000000000     0.00000000000000
    9     0.00000000000000     0.00000000000000     0.00000000000000    -0.07988582259252     0.00000000000000
   10     0.00000000000000     0.00000000000000     0.00000000000000     0.00000000000000    -0.07988582259252

                 6                   7                   8                   9                  10

    1    -0.20502358225974    -0.36753496130384     0.21938526113207     0.00000000000000     0.00000000000000
    2    -0.36753496130384    -0.51047092407902     0.17269034609365     0.00000000000000     0.00000000000000
    3    -0.21938526113207    -0.17269034609365     0.19835052960188     0.00000000000000     0.00000000000000
    4     0.00000000000000     0.00000000000000     0.00000000000000    -0.07988582259252     0.00000000000000
    5     0.00000000000000     0.00000000000000     0.00000000000000     0.00000000000000    -0.07988582259252
    6    -0.76115274929445    -0.68953598697857     0.07827815482460     0.00000000000000     0.00000000000000
    7    -0.68953598697857    -0.71034021504932     0.07319641202443     0.00000000000000     0.00000000000000
    8     0.07827815482460     0.07319641202443     0.52745021242980     0.00000000000000     0.00000000000000
    9     0.00000000000000     0.00000000000000     0.00000000000000     0.57273284350934     0.00000000000000
   10     0.00000000000000     0.00000000000000     0.00000000000000     0.00000000000000     0.57273284350934




	There are 0 unique integrals

  ## Fock (Symmetry 0) ##
  Irrep: 1 Size: 10 x 10

                 1                   2                   3                   4                   5

    1    -0.51003884020079    -0.34783963574447    -0.04656953044250     0.00000000000000     0.00000000000000
    2    -0.34783963574447    -0.32773436426911     0.11713388422765    -0.00000000000000     0.00000000000000
    3    -0.04656953044250     0.11713388422765     0.70687203174529    -0.00000000000000     0.00000000000000
    4     0.00000000000000    -0.00000000000000    -0.00000000000000     0.57871953203530     0.00000000000000
    5     0.00000000000000     0.00000000000000     0.00000000000000     0.00000000000000     0.57871953203530
    6    -0.01706065498127    -0.06293215743860    -0.14792069961039     0.00000000000000     0.00000000000000
    7    -0.06293215743860    -0.12971215273066    -0.17034852506312     0.00000000000000     0.00000000000000
    8     0.14792069961039     0.17034852506312     0.40928053994700    -0.00000000000000     0.00000000000000
    9     0.00000000000000     0.00000000000000     0.00000000000000    -0.11107693792914     0.00000000000000
   10     0.00000000000000     0.00000000000000     0.00000000000000     0.00000000000000    -0.11107693792914

                 6                   7                   8                   9                  10

    1    -0.01706065498127    -0.06293215743860     0.14792069961039     0.00000000000000     0.00000000000000
    2    -0.06293215743860    -0.12971215273066     0.17034852506312     0.00000000000000     0.00000000000000
    3    -0.14792069961039    -0.17034852506312     0.40928053994700     0.00000000000000     0.00000000000000
    4     0.00000000000000     0.00000000000000    -0.00000000000000    -0.11107693792914     0.00000000000000
    5     0.00000000000000     0.00000000000000     0.00000000000000     0.00000000000000    -0.11107693792914
    6    -0.51003884020079    -0.34783963574447     0.04656953044250     0.00000000000000     0.00000000000000
    7    -0.34783963574447    -0.32773436426911    -0.11713388422765    -0.00000000000000     0.00000000000000
    8     0.04656953044250    -0.11713388422765     0.70687203174529     0.00000000000000     0.00000000000000
    9     0.00000000000000    -0.00000000000000     0.00000000000000     0.57871953203530     0.00000000000000
   10     0.00000000000000     0.00000000000000     0.00000000000000     0.00000000000000     0.57871953203530



  ## C (Symmetry 0) ##
  Irrep: 1 Size: 10 x 10

                 1                   2                   3                   4                   5

    1     0.36122298865627     0.39152027592958     0.18341913034875     0.02629619206729     0.01910240414279
    2     0.59275737063980     0.40772350820363    -0.21653507048829    -0.03303789367606    -0.34377193858217
    3    -0.41260833869403     0.59630829985020    -0.16321956539694     0.11631149826363    -0.09420158686129
    4     0.39827415958869    -0.57537321150526     0.10684377988381    -0.00000000000000     0.01909006202180
    5     0.17304288286247    -0.04729951556845    -0.70360062156394    -0.00000000000000     0.00000000000000
    6     0.04269365888320    -0.00788099207350     0.00626756831609    -0.98242179346655    -0.09819587287213
    7    -0.23332042638152    -0.25502539754506     0.06908941883109     0.61771550678188     0.95022208519155
    8     0.02781671606826     0.15310506119915    -0.02989556481479     0.72513339098073    -0.06449259704956
    9    -0.01074065171670     0.01551665636124    -0.00288136149484     0.00000000000000    -0.70787868453133
   10     0.01330823722349     0.14238801248988     0.71188725432382    -0.00000000000000     0.00000000000000

                 6                   7                   8                   9                  10

    1     0.98874691010840     0.80715243994491    -0.08249655501973    -0.03906901014939     0.01910240414279
    2    -1.23900295881877    -0.80551870243356    -0.07806082221762    -0.21008673797170    -0.34377193858217
    3    -0.52447529565974     0.52221470147729     0.14522837652708    -0.10521433382824    -0.09420158686129
    4    -0.39827415958868     0.57537321150526     0.10684377988381     0.00000000000000    -0.01909006202180
    5     0.17401307972238    -0.03968293981240     0.66620050974873    -0.00000000000000     0.00000000000000
    6     0.01555351174077    -0.02585690933001    -0.01063242748844    -0.98432540724469    -0.09819587287213
    7     0.36867204923540     0.14369635123323     0.02772701938111     0.75309556534873     0.95022208519155
    8    -0.11848190172905     0.05620610798182     0.00636684699155    -0.76629409683223    -0.06449259704956
    9     0.01074065171670    -0.01551665636124    -0.00288136149484    -0.00000000000000     0.70787868453133
   10    -0.02266763735173    -0.14004227090404     0.67494647742840     0.00000000000000    -0.00000000000000




 In Bisection function HOMO = -0.931  LUMO =  1.177

 0.12322 = (-0.93088 + 1.17733)/2.0
 sum -  nocc_ = 3.00000000
 On Iteration in Bisection 0
 a: 3.00000  b:-0.50000

 -0.40383 = (-0.93088 + 0.12322)/2.0
 sum -  nocc_ = 1.00000000
 On Iteration in Bisection 1
 a: 1.00000  b:-0.50000

 -0.66735 = (-0.93088 + -0.40383)/2.0
 sum -  nocc_ = 1.00000000
 On Iteration in Bisection 2
 a: 1.00000  b:-0.50000

 -0.79912 = (-0.93088 + -0.66735)/2.0
 sum -  nocc_ = 0.00000000
 ef = -0.79912 sum = 1.00000 

 Iter: 0  T:      100.000  val:-0.799117  sumni 0.00000
 ne = 1.0000

Nuc Replusion =       0.352784805727
 1st iteration =      -0.510384720194
 In Bisection function HOMO = -0.297  LUMO =  2.140

 0.92109 = (-0.29745 + 2.13964)/2.0
 sum -  nocc_ = 3.00000000
 On Iteration in Bisection 0
 a: 3.00000  b:-0.50000

 0.31182 = (-0.29745 + 0.92109)/2.0
 sum -  nocc_ = 1.00000000
 On Iteration in Bisection 1
 a: 1.00000  b:-0.50000

 0.00719 = (-0.29745 + 0.31182)/2.0
 sum -  nocc_ = 1.00000000
 On Iteration in Bisection 2
 a: 1.00000  b:-0.50000

 -0.14513 = (-0.29745 + 0.00719)/2.0
 sum -  nocc_ = 0.00000000
 ef = -0.14513 sum = 1.00000 

 Iter: 0  T:      100.000  val:-0.145129  sumni 0.00000
 ne = 1.0000

 iter:1  failiter:1  energy:     -1.164453211779  total:     -0.811668406052  error:     -0.162260467519
 In Bisection function HOMO = -0.376  LUMO =  2.186

 0.90496 = (-0.37622 + 2.18615)/2.0
 sum -  nocc_ = 3.00000000
 On Iteration in Bisection 0
 a: 3.00000  b:-0.50000

 0.26437 = (-0.37622 + 0.90496)/2.0
 sum -  nocc_ = 1.00000000
 On Iteration in Bisection 1
 a: 1.00000  b:-0.50000

 -0.05592 = (-0.37622 + 0.26437)/2.0
 sum -  nocc_ = 0.00000000
 ef = -0.05592 sum = 1.00000 

 Iter: 1  T:      100.000  val:-0.055923  sumni 0.00000
 ne = 1.0000

 iter:2  failiter:2  energy:     -1.290254293716  total:     -0.937469487990  error:     -0.125801081937
 In Bisection function HOMO = -0.440  LUMO =  2.131

 0.84577 = (-0.43991 + 2.13145)/2.0
 sum -  nocc_ = 3.00000000
 On Iteration in Bisection 0
 a: 3.00000  b:-0.50000

 0.20293 = (-0.43991 + 0.84577)/2.0
 sum -  nocc_ = 1.00000000
 On Iteration in Bisection 1
 a: 1.00000  b:-0.50000

 -0.11849 = (-0.43991 + 0.20293)/2.0
 sum -  nocc_ = 0.00000000
 ef = -0.11849 sum = 1.00000 

 Iter: 2  T:      100.000  val:-0.118490  sumni 0.00000
 ne = 1.0000

 iter:3  failiter:3  energy:     -1.355580003130  total:     -1.002795197403  error:     -0.065325709413
 In Bisection function HOMO = -0.439  LUMO =  2.133

 0.84665 = (-0.43929 + 2.13258)/2.0
 sum -  nocc_ = 3.00000000
 On Iteration in Bisection 0
 a: 3.00000  b:-0.50000

 0.20368 = (-0.43929 + 0.84665)/2.0
 sum -  nocc_ = 1.00000000
 On Iteration in Bisection 1
 a: 1.00000  b:-0.50000

 -0.11780 = (-0.43929 + 0.20368)/2.0
 sum -  nocc_ = 0.00000000
 ef = -0.11780 sum = 1.00000 

 Iter: 3  T:      100.000  val:-0.117803  sumni 0.00000
 ne = 1.0000

 iter:4  failiter:4  energy:     -1.355091736250  total:     -1.002306930524  error:      0.000488266879
 In Bisection function HOMO = -0.439  LUMO =  2.133

 0.84678 = (-0.43917 + 2.13273)/2.0
 sum -  nocc_ = 3.00000000
 On Iteration in Bisection 0
 a: 3.00000  b:-0.50000

 0.20380 = (-0.43917 + 0.84678)/2.0
 sum -  nocc_ = 1.00000000
 On Iteration in Bisection 1
 a: 1.00000  b:-0.50000

 -0.11768 = (-0.43917 + 0.20380)/2.0
 sum -  nocc_ = 0.00000000
 ef = -0.11768 sum = 1.00000 

 Iter: 4  T:      100.000  val:-0.117683  sumni 0.00000
 ne = 1.0000

 iter:5  failiter:5  energy:     -1.354985645417  total:     -1.002200839691  error:      0.000106090833
 In Bisection function HOMO = -0.439  LUMO =  2.133

 0.84678 = (-0.43916 + 2.13273)/2.0
 sum -  nocc_ = 3.00000000
 On Iteration in Bisection 0
 a: 3.00000  b:-0.50000

 0.20381 = (-0.43916 + 0.84678)/2.0
 sum -  nocc_ = 1.00000000
 On Iteration in Bisection 1
 a: 1.00000  b:-0.50000

 -0.11768 = (-0.43916 + 0.20381)/2.0
 sum -  nocc_ = 0.00000000
 ef = -0.11768 sum = 1.00000 

 Iter: 5  T:      100.000  val:-0.117676  sumni 0.00000
 ne = 1.0000

 iter:6  failiter:6  energy:     -1.354977020344  total:     -1.002192214618  error:      0.000008625073
 In Bisection function HOMO = -0.439  LUMO =  2.133

 0.84678 = (-0.43916 + 2.13273)/2.0
 sum -  nocc_ = 3.00000000
 On Iteration in Bisection 0
 a: 3.00000  b:-0.50000

 0.20381 = (-0.43916 + 0.84678)/2.0
 sum -  nocc_ = 1.00000000
 On Iteration in Bisection 1
 a: 1.00000  b:-0.50000

 -0.11768 = (-0.43916 + 0.20381)/2.0
 sum -  nocc_ = 0.00000000
 ef = -0.11768 sum = 1.00000 

 Iter: 6  T:      100.000  val:-0.117677  sumni 0.00000
 ne = 1.0000

 iter:7  failiter:7  energy:     -1.354977138960  total:     -1.002192333233  error:     -0.000000118616
 In Bisection function HOMO = -0.439  LUMO =  2.133

 0.84678 = (-0.43916 + 2.13272)/2.0
 sum -  nocc_ = 3.00000000
 On Iteration in Bisection 0
 a: 3.00000  b:-0.50000

 0.20381 = (-0.43916 + 0.84678)/2.0
 sum -  nocc_ = 1.00000000
 On Iteration in Bisection 1
 a: 1.00000  b:-0.50000

 -0.11768 = (-0.43916 + 0.20381)/2.0
 sum -  nocc_ = 0.00000000
 ef = -0.11768 sum = 1.00000 

 Iter: 7  T:      100.000  val:-0.117677  sumni 0.00000
 ne = 1.0000

 iter:8  failiter:8  energy:     -1.354977425064  total:     -1.002192619337  error:     -0.000000286104
 In Bisection function HOMO = -0.439  LUMO =  2.133

 0.84678 = (-0.43916 + 2.13272)/2.0
 sum -  nocc_ = 3.00000000
 On Iteration in Bisection 0
 a: 3.00000  b:-0.50000

 0.20381 = (-0.43916 + 0.84678)/2.0
 sum -  nocc_ = 1.00000000
 On Iteration in Bisection 1
 a: 1.00000  b:-0.50000

 -0.11768 = (-0.43916 + 0.20381)/2.0
 sum -  nocc_ = 0.00000000
 ef = -0.11768 sum = 1.00000 

 Iter: 8  T:      100.000  val:-0.117677  sumni 0.00000
 ne = 1.0000

 iter:9  failiter:9  energy:     -1.354977519121  total:     -1.002192713394  error:     -0.000000094057
 In Bisection function HOMO = -0.439  LUMO =  2.133

 0.84678 = (-0.43916 + 2.13272)/2.0
 sum -  nocc_ = 3.00000000
 On Iteration in Bisection 0
 a: 3.00000  b:-0.50000

 0.20381 = (-0.43916 + 0.84678)/2.0
 sum -  nocc_ = 1.00000000
 On Iteration in Bisection 1
 a: 1.00000  b:-0.50000

 -0.11768 = (-0.43916 + 0.20381)/2.0
 sum -  nocc_ = 0.00000000
 ef = -0.11768 sum = 1.00000 

 Iter: 9  T:      100.000  val:-0.117677  sumni 0.00000
 ne = 1.0000

 iter:10  failiter:10  energy:     -1.354977543024  total:     -1.002192737298  error:     -0.000000023903
 In Bisection function HOMO = -0.439  LUMO =  2.133

 0.84678 = (-0.43916 + 2.13272)/2.0
 sum -  nocc_ = 3.00000000
 On Iteration in Bisection 0
 a: 3.00000  b:-0.50000

 0.20381 = (-0.43916 + 0.84678)/2.0
 sum -  nocc_ = 1.00000000
 On Iteration in Bisection 1
 a: 1.00000  b:-0.50000

 -0.11768 = (-0.43916 + 0.20381)/2.0
 sum -  nocc_ = 0.00000000
 ef = -0.11768 sum = 1.00000 

 Iter: 10  T:      100.000  val:-0.117677  sumni 0.00000
 ne = 1.0000

 iter:11  failiter:11  energy:     -1.354977548493  total:     -1.002192742766  error:     -0.000000005468
 In Bisection function HOMO = -0.439  LUMO =  2.133

 0.84678 = (-0.43916 + 2.13272)/2.0
 sum -  nocc_ = 3.00000000
 On Iteration in Bisection 0
 a: 3.00000  b:-0.50000

 0.20381 = (-0.43916 + 0.84678)/2.0
 sum -  nocc_ = 1.00000000
 On Iteration in Bisection 1
 a: 1.00000  b:-0.50000

 -0.11768 = (-0.43916 + 0.20381)/2.0
 sum -  nocc_ = 0.00000000
 ef = -0.11768 sum = 1.00000 

 Iter: 11  T:      100.000  val:-0.117677  sumni 0.00000
 ne = 1.0000

 iter:12  failiter:12  energy:     -1.354977549676  total:     -1.002192743949  error:     -0.000000001183
 In Bisection function HOMO = -0.439  LUMO =  2.133

 0.84678 = (-0.43916 + 2.13272)/2.0
 sum -  nocc_ = 3.00000000
 On Iteration in Bisection 0
 a: 3.00000  b:-0.50000

 0.20381 = (-0.43916 + 0.84678)/2.0
 sum -  nocc_ = 1.00000000
 On Iteration in Bisection 1
 a: 1.00000  b:-0.50000

 -0.11768 = (-0.43916 + 0.20381)/2.0
 sum -  nocc_ = 0.00000000
 ef = -0.11768 sum = 1.00000 

 Iter: 12  T:      100.000  val:-0.117677  sumni 0.00000
 ne = 1.0000

 iter:13  failiter:13  energy:     -1.354977549923  total:     -1.002192744197  error:     -0.000000000248
 In Bisection function HOMO = -0.439  LUMO =  2.133

 0.84678 = (-0.43916 + 2.13272)/2.0
 sum -  nocc_ = 3.00000000
 On Iteration in Bisection 0
 a: 3.00000  b:-0.50000

 0.20381 = (-0.43916 + 0.84678)/2.0
 sum -  nocc_ = 1.00000000
 On Iteration in Bisection 1
 a: 1.00000  b:-0.50000

 -0.11768 = (-0.43916 + 0.20381)/2.0
 sum -  nocc_ = 0.00000000
 ef = -0.11768 sum = 1.00000 

 Iter: 13  T:      100.000  val:-0.117677  sumni 0.00000
 ne = 1.0000

 iter:14  failiter:14  energy:     -1.354977549974  total:     -1.002192744247  error:     -0.000000000051
 In Bisection function HOMO = -0.439  LUMO =  2.133

 0.84678 = (-0.43916 + 2.13272)/2.0
 sum -  nocc_ = 3.00000000
 On Iteration in Bisection 0
 a: 3.00000  b:-0.50000

 0.20381 = (-0.43916 + 0.84678)/2.0
 sum -  nocc_ = 1.00000000
 On Iteration in Bisection 1
 a: 1.00000  b:-0.50000

 -0.11768 = (-0.43916 + 0.20381)/2.0
 sum -  nocc_ = 0.00000000
 ef = -0.11768 sum = 1.00000 

 Iter: 14  T:      100.000  val:-0.117677  sumni 0.00000
 ne = 1.0000

 iter:15  failiter:15  energy:     -1.354977549984  total:     -1.002192744257  error:     -0.000000000010
 In Bisection function HOMO = -0.439  LUMO =  2.133

 0.84678 = (-0.43916 + 2.13272)/2.0
 sum -  nocc_ = 3.00000000
 On Iteration in Bisection 0
 a: 3.00000  b:-0.50000

 0.20381 = (-0.43916 + 0.84678)/2.0
 sum -  nocc_ = 1.00000000
 On Iteration in Bisection 1
 a: 1.00000  b:-0.50000

 -0.11768 = (-0.43916 + 0.20381)/2.0
 sum -  nocc_ = 0.00000000
 ef = -0.11768 sum = 1.00000 

 Iter: 15  T:      100.000  val:-0.117677  sumni 0.00000
 ne = 1.0000

 iter:16  failiter:16  energy:     -1.354977549986  total:     -1.002192744260  error:     -0.000000000002
 In Bisection function HOMO = -0.439  LUMO =  2.133

 0.84678 = (-0.43916 + 2.13272)/2.0
 sum -  nocc_ = 3.00000000
 On Iteration in Bisection 0
 a: 3.00000  b:-0.50000

 0.20381 = (-0.43916 + 0.84678)/2.0
 sum -  nocc_ = 1.00000000
 On Iteration in Bisection 1
 a: 1.00000  b:-0.50000

 -0.11768 = (-0.43916 + 0.20381)/2.0
 sum -  nocc_ = 0.00000000
 ef = -0.11768 sum = 1.00000 

 Iter: 16  T:      100.000  val:-0.117677  sumni 0.00000
 ne = 1.0000

 iter:17  failiter:17  energy:     -1.354977549987  total:     -1.002192744260  error:     -0.000000000000
 FTHFEnergy =    -1.002193
 FD_dis[0] = 1.00000000 with -0.439163 eig value
 FD_dis[1] = 0.00000000 with 0.040297 eig value
 FD_dis[2] = 0.00000000 with 0.643663 eig value
 FD_dis[3] = 0.00000000 with 0.675709 eig value
 FD_dis[4] = 0.00000000 with 1.277133 eig value
 FD_dis[5] = 0.00000000 with 1.383016 eig value
 FD_dis[6] = 0.00000000 with 1.383016 eig value
 FD_dis[7] = 0.00000000 with 1.617143 eig value
 FD_dis[8] = 0.00000000 with 1.617143 eig value
 FD_dis[9] = 0.00000000 with 2.132723 eig value
*** PSI4 exiting successfully. Buy a developer a beer!
