    -----------------------------------------------------------------------
          PSI4: An Open-Source Ab Initio Electronic Structure Package
                              PSI 4.0 Driver

               Git: Rev {master} 556e8139d3cfa1f96ccffe2cdf22cc56a185d2b2

    J. M. Turney, A. C. Simmonett, R. M. Parrish, E. G. Hohenstein,
    F. A. Evangelista, J. T. Fermann, B. J. Mintz, L. A. Burns, J. J. Wilke,
    M. L. Abrams, N. J. Russ, M. L. Leininger, C. L. Janssen, E. T. Seidl,
    W. D. Allen, H. F. Schaefer, R. A. King, E. F. Valeev, C. D. Sherrill,
    and T. D. Crawford, WIREs Comput. Mol. Sci. 2, 556-565 (2012)
    (doi: 10.1002/wcms.93)

                         Additional Contributions by
    A. E. DePrince, M. Saitow, U. Bozkaya, A. Yu. Sokolov
    -----------------------------------------------------------------------

    Process ID:  11935
    PSI4DATADIR: /Users/kevinhannon/Programs/psi4cmake/psi4/lib
    Memory level set to 256.000 MB

  ==> Input File <==

--------------------------------------------------------------------------

# PYTHONPATH must include directory above plugin directory.
#     Define either externally or here, then import plugin.
sys.path.insert(0, '/Users/kevinhannon/Programs/Quantum_Programs/Quantum-Programs/GS/')
import scf

molecule {
0 1
H
H 1 1.00000
symmetry c1
units angstrom
}


set {
  basis cc-pvdz
  reference rhf
  scf_type  pk
}

set scf {
  DO_FTHF true
  MAX_ITER 130
  MAX_TEMP 100
  TEMP_INCREMENT 0
  bisect  true
  bisect_iter  40
}
energy('rhf')

energy('scf')


--------------------------------------------------------------------------

*** tstart() called on Kevins-MacBook-Pro.local
*** at Fri Apr 10 18:02:05 2015

/Users/kevinhannon/Programs/Quantum_Programs/Quantum-Programs/GS/scf/scf.so loaded.

*** tstart() called on Kevins-MacBook-Pro.local
*** at Fri Apr 10 18:02:05 2015


         ---------------------------------------------------------
                                   SCF
            by Justin Turney, Rob Parrish, and Andy Simmonett
                              RHF Reference
                        1 Threads,    256 MiB Core
         ---------------------------------------------------------

  ==> Geometry <==

    Molecular point group: c1
    Full point group: D_inf_h

    Geometry (in Angstrom), charge = 0, multiplicity = 1:

       Center              X                  Y                   Z       
    ------------   -----------------  -----------------  -----------------
           H          0.000000000000     0.000000000000    -0.500000000000
           H          0.000000000000     0.000000000000     0.500000000000

  Running in c1 symmetry.

  Rotational constants: A = ************  B =     33.45348  C =     33.45348 [cm^-1]
  Rotational constants: A = ************  B = 1002910.20547  C = 1002910.20547 [MHz]
  Nuclear repulsion =    0.529177208590000

  Charge       = 0
  Multiplicity = 1
  Electrons    = 2
  Nalpha       = 1
  Nbeta        = 1

  ==> Algorithm <==

  SCF Algorithm Type is PK.
  DIIS enabled.
  MOM disabled.
  Fractional occupation disabled.
  Guess Type is CORE.
  Energy threshold   = 1.00e-06
  Density threshold  = 1.00e-06
  Integral threshold = 0.00e+00

  ==> Primary Basis <==

  Basis Set: CC-PVDZ
    Number of shells: 6
    Number of basis function: 10
    Number of Cartesian functions: 10
    Spherical Harmonics?: true
    Max angular momentum: 1

  ==> Pre-Iterations <==

   -------------------------------------------------------
    Irrep   Nso     Nmo     Nalpha   Nbeta   Ndocc  Nsocc
   -------------------------------------------------------
     A         10      10       0       0       0       0
   -------------------------------------------------------
    Total      10      10       1       1       1       0
   -------------------------------------------------------

  Starting with a DF guess...

 OEINTS: Overlap, kinetic, potential, dipole, and quadrupole integrals
         stored in file 35.

  ==> Integral Setup <==

  ==> DFJK: Density-Fitted J/K Matrices <==

    J tasked:                  Yes
    K tasked:                  Yes
    wK tasked:                  No
    OpenMP threads:              1
    Integrals threads:           1
    Memory (MB):               183
    Algorithm:                Core
    Integral Cache:           NONE
    Schwarz Cutoff:          1E-12
    Fitting Condition:       1E-12

   => Auxiliary Basis Set <=

  Basis Set: 
    Number of shells: 18
    Number of basis function: 46
    Number of Cartesian functions: 50
    Spherical Harmonics?: true
    Max angular momentum: 2

  Minimum eigenvalue in the overlap matrix is 1.1235676137E-01.
  Using Symmetric Orthogonalization.
  SCF Guess: Core (One-Electron) Hamiltonian.

  ==> Iterations <==

                           Total Energy        Delta E     RMS |[F,P]|

   @DF-RHF iter   1:    -1.05033294564880   -1.05033e+00   2.12825e-02 
   @DF-RHF iter   2:    -1.09856668283291   -4.82337e-02   3.76192e-03 DIIS
   @DF-RHF iter   3:    -1.10015283976895   -1.58616e-03   1.74077e-04 DIIS
   @DF-RHF iter   4:    -1.10015471058277   -1.87081e-06   9.11522e-06 DIIS
   @DF-RHF iter   5:    -1.10015472010502   -9.52224e-09   1.26195e-08 DIIS

  DF guess converged.

  ==> Integral Setup <==

 MINTS: Wrapper to libmints.
   by Justin Turney

   Calculation information:
      Number of atoms:                   2
      Number of AO shells:               6
      Number of SO shells:               6
      Number of primitives:             10
      Number of atomic orbitals:        10
      Number of basis functions:        10

      Number of irreps:                  1
      Integral cutoff                 0.00e+00
      Number of functions per irrep: [  10 ]

 OEINTS: Overlap, kinetic, potential, dipole, and quadrupole integrals
         stored in file 35.

      Computing two-electron integrals...done
      Computed 512 non-zero two-electron integrals.
        Stored in file 33.

	Batch   1 pq = [       0,      55] index = [             0,1540]
  ==> DiskJK: Disk-Based J/K Matrices <==

    J tasked:                  Yes
    K tasked:                  Yes
    wK tasked:                  No
    Memory (MB):               183
    Schwarz Cutoff:          1E-12

   @RHF iter   6:    -1.10015376408255    9.56022e-07   2.96163e-07 DIIS

  ==> Post-Iterations <==

    Orbital Energies (a.u.)
    -----------------------

    Doubly Occupied:                                                      

       1A     -0.525044  

    Virtual:                                                              

       2A      0.143588     3A      0.539607     4A      0.794799  
       5A      1.287130     6A      1.287130     7A      1.679162  
       8A      1.871551     9A      1.871551    10A      2.735411  

    Final Occupation by Irrep:
              A 
    DOCC [     1 ]

  Energy converged.

  @RHF Final Energy:    -1.10015376408255

   => Energetics <=

    Nuclear Repulsion Energy =              0.5291772085899999
    One-Electron Energy =                  -2.2085747047329525
    Two-Electron Energy =                   0.5792437320603980
    DFT Exchange-Correlation Energy =       0.0000000000000000
    Empirical Dispersion Energy =           0.0000000000000000
    PCM Polarization Energy =               0.0000000000000000
    EFP Energy =                            0.0000000000000000
    Total Energy =                         -1.1001537640825545

    Alert: EFP and PCM quantities not currently incorporated into SCF psivars.

Properties will be evaluated at   0.000000,   0.000000,   0.000000 Bohr
  ==> Properties <==


Properties computed using the SCF density matrix

  Nuclear Dipole Moment: (a.u.)
     X:     0.0000      Y:     0.0000      Z:     0.0000

  Electronic Dipole Moment: (a.u.)
     X:     0.0000      Y:     0.0000      Z:    -0.0000

  Dipole Moment: (a.u.)
     X:     0.0000      Y:     0.0000      Z:    -0.0000     Total:     0.0000

  Dipole Moment: (Debye)
     X:     0.0000      Y:     0.0000      Z:    -0.0000     Total:     0.0000


  Saving occupied orbitals to File 180.

*** tstop() called on Kevins-MacBook-Pro.local at Fri Apr 10 18:02:05 2015
Module time:
	user time   =       0.20 seconds =       0.00 minutes
	system time =       0.01 seconds =       0.00 minutes
	total time  =          0 seconds =       0.00 minutes
Total time:
	user time   =       0.22 seconds =       0.00 minutes
	system time =       0.01 seconds =       0.00 minutes
	total time  =          0 seconds =       0.00 minutes

*** tstart() called on Kevins-MacBook-Pro.local
*** at Fri Apr 10 18:02:05 2015


         ---------------------------------------------------------
                                   SCF
            by Justin Turney, Rob Parrish, and Andy Simmonett
                              RHF Reference
                        1 Threads,    256 MiB Core
         ---------------------------------------------------------

  ==> Geometry <==

    Molecular point group: c1
    Full point group: D_inf_h

    Geometry (in Angstrom), charge = 0, multiplicity = 1:

       Center              X                  Y                   Z       
    ------------   -----------------  -----------------  -----------------
           H          0.000000000000     0.000000000000    -0.500000000000
           H          0.000000000000     0.000000000000     0.500000000000

  Running in c1 symmetry.

  Rotational constants: A = ************  B =     33.45348  C =     33.45348 [cm^-1]
  Rotational constants: A = ************  B = 1002910.20547  C = 1002910.20547 [MHz]
  Nuclear repulsion =    0.529177208590000

  Charge       = 0
  Multiplicity = 1
  Electrons    = 2
  Nalpha       = 1
  Nbeta        = 1

  ==> Algorithm <==

  SCF Algorithm Type is PK.
  DIIS enabled.
  MOM disabled.
  Fractional occupation disabled.
  Guess Type is CORE.
  Energy threshold   = 1.00e-08
  Density threshold  = 1.00e-08
  Integral threshold = 0.00e+00

  ==> Primary Basis <==

  Basis Set: CC-PVDZ
    Number of shells: 6
    Number of basis function: 10
    Number of Cartesian functions: 10
    Spherical Harmonics?: true
    Max angular momentum: 1

  ==> Pre-Iterations <==

   -------------------------------------------------------
    Irrep   Nso     Nmo     Nalpha   Nbeta   Ndocc  Nsocc
   -------------------------------------------------------
     A         10      10       0       0       0       0
   -------------------------------------------------------
    Total      10      10       1       1       1       0
   -------------------------------------------------------

  Starting with a DF guess...

 OEINTS: Overlap, kinetic, potential, dipole, and quadrupole integrals
         stored in file 35.

  ==> Integral Setup <==

  ==> DFJK: Density-Fitted J/K Matrices <==

    J tasked:                  Yes
    K tasked:                  Yes
    wK tasked:                  No
    OpenMP threads:              1
    Integrals threads:           1
    Memory (MB):               183
    Algorithm:                Core
    Integral Cache:           NONE
    Schwarz Cutoff:          1E-12
    Fitting Condition:       1E-12

   => Auxiliary Basis Set <=

  Basis Set: 
    Number of shells: 18
    Number of basis function: 46
    Number of Cartesian functions: 50
    Spherical Harmonics?: true
    Max angular momentum: 2

  Minimum eigenvalue in the overlap matrix is 1.1235676137E-01.
  Using Symmetric Orthogonalization.
  SCF Guess: Core (One-Electron) Hamiltonian.

  ==> Iterations <==

                           Total Energy        Delta E     RMS |[F,P]|

   @DF-RHF iter   1:    -1.05033294564880   -1.05033e+00   2.12825e-02 
   @DF-RHF iter   2:    -1.09856668283291   -4.82337e-02   3.76192e-03 DIIS
   @DF-RHF iter   3:    -1.10015283976895   -1.58616e-03   1.74077e-04 DIIS
   @DF-RHF iter   4:    -1.10015471058277   -1.87081e-06   9.11522e-06 DIIS
   @DF-RHF iter   5:    -1.10015472010502   -9.52224e-09   1.26195e-08 DIIS
   @DF-RHF iter   6:    -1.10015472010504   -1.88738e-14   8.25982e-12 DIIS

  DF guess converged.

  ==> Integral Setup <==

 MINTS: Wrapper to libmints.
   by Justin Turney

   Calculation information:
      Number of atoms:                   2
      Number of AO shells:               6
      Number of SO shells:               6
      Number of primitives:             10
      Number of atomic orbitals:        10
      Number of basis functions:        10

      Number of irreps:                  1
      Integral cutoff                 0.00e+00
      Number of functions per irrep: [  10 ]

 OEINTS: Overlap, kinetic, potential, dipole, and quadrupole integrals
         stored in file 35.

      Computing two-electron integrals...done
      Computed 512 non-zero two-electron integrals.
        Stored in file 33.

	Batch   1 pq = [       0,      55] index = [             0,1540]
  ==> DiskJK: Disk-Based J/K Matrices <==

    J tasked:                  Yes
    K tasked:                  Yes
    wK tasked:                  No
    Memory (MB):               183
    Schwarz Cutoff:          1E-12

   @RHF iter   7:    -1.10015376408255    9.56022e-07   2.96163e-07 DIIS
   @RHF iter   8:    -1.10015376408716   -4.60298e-12   4.67633e-08 DIIS
   @RHF iter   9:    -1.10015376408728   -1.21680e-13   1.05260e-09 DIIS

  ==> Post-Iterations <==

    Orbital Energies (a.u.)
    -----------------------

    Doubly Occupied:                                                      

       1A     -0.525044  

    Virtual:                                                              

       2A      0.143588     3A      0.539607     4A      0.794799  
       5A      1.287130     6A      1.287130     7A      1.679162  
       8A      1.871551     9A      1.871551    10A      2.735411  

    Final Occupation by Irrep:
              A 
    DOCC [     1 ]

  Energy converged.

  @RHF Final Energy:    -1.10015376408728

   => Energetics <=

    Nuclear Repulsion Energy =              0.5291772085899999
    One-Electron Energy =                  -2.2085745379673947
    Two-Electron Energy =                   0.5792435652901171
    DFT Exchange-Correlation Energy =       0.0000000000000000
    Empirical Dispersion Energy =           0.0000000000000000
    PCM Polarization Energy =               0.0000000000000000
    EFP Energy =                            0.0000000000000000
    Total Energy =                         -1.1001537640872776

    Alert: EFP and PCM quantities not currently incorporated into SCF psivars.

Properties will be evaluated at   0.000000,   0.000000,   0.000000 Bohr
  ==> Properties <==


Properties computed using the SCF density matrix

  Nuclear Dipole Moment: (a.u.)
     X:     0.0000      Y:     0.0000      Z:     0.0000

  Electronic Dipole Moment: (a.u.)
     X:     0.0000      Y:    -0.0000      Z:    -0.0000

  Dipole Moment: (a.u.)
     X:     0.0000      Y:    -0.0000      Z:    -0.0000     Total:     0.0000

  Dipole Moment: (Debye)
     X:     0.0000      Y:    -0.0000      Z:    -0.0000     Total:     0.0000


  Saving occupied orbitals to File 180.

*** tstop() called on Kevins-MacBook-Pro.local at Fri Apr 10 18:02:05 2015
Module time:
	user time   =       0.18 seconds =       0.00 minutes
	system time =       0.01 seconds =       0.00 minutes
	total time  =          0 seconds =       0.00 minutes
Total time:
	user time   =       0.41 seconds =       0.01 minutes
	system time =       0.02 seconds =       0.00 minutes
	total time  =          0 seconds =       0.00 minutes
Reading options from the SCF block
Calling plugin scf.so.
    Molecular point group: c1
    Full point group: D_inf_h

    Geometry (in Angstrom), charge = 0, multiplicity = 1:

       Center              X                  Y                   Z       
    ------------   -----------------  -----------------  -----------------
           H          0.000000000000     0.000000000000    -0.500000000000
           H          0.000000000000     0.000000000000     0.500000000000


    Nuclear repulsion energy:       0.52917721

  ## Overlap (Symmetry 0) ##
  Irrep: 1 Size: 10 x 10

                 1                   2                   3                   4                   5

    1     1.00000000000000     0.68486025149275     0.00000000000000     0.00000000000000     0.00000000000000
    2     0.68486025149275     1.00000000000000     0.00000000000000     0.00000000000000     0.00000000000000
    3     0.00000000000000     0.00000000000000     1.00000000000000     0.00000000000000     0.00000000000000
    4     0.00000000000000     0.00000000000000     0.00000000000000     1.00000000000000     0.00000000000000
    5     0.00000000000000     0.00000000000000     0.00000000000000     0.00000000000000     1.00000000000000
    6     0.37512845364459     0.48284141882993     0.42735596907041     0.00000000000000     0.00000000000000
    7     0.48284141882993     0.80425816846052     0.18738393724567     0.00000000000000     0.00000000000000
    8    -0.42735596907041    -0.18738393724567    -0.43584058630853     0.00000000000000     0.00000000000000
    9     0.00000000000000     0.00000000000000     0.00000000000000     0.27305498996648     0.00000000000000
   10     0.00000000000000     0.00000000000000     0.00000000000000     0.00000000000000     0.27305498996648

                 6                   7                   8                   9                  10

    1     0.37512845364459     0.48284141882993    -0.42735596907041     0.00000000000000     0.00000000000000
    2     0.48284141882993     0.80425816846052    -0.18738393724567     0.00000000000000     0.00000000000000
    3     0.42735596907041     0.18738393724567    -0.43584058630853     0.00000000000000     0.00000000000000
    4     0.00000000000000     0.00000000000000     0.00000000000000     0.27305498996648     0.00000000000000
    5     0.00000000000000     0.00000000000000     0.00000000000000     0.00000000000000     0.27305498996648
    6     1.00000000000000     0.68486025149275    -0.00000000000000     0.00000000000000     0.00000000000000
    7     0.68486025149275     1.00000000000000    -0.00000000000000     0.00000000000000     0.00000000000000
    8    -0.00000000000000    -0.00000000000000     1.00000000000000     0.00000000000000     0.00000000000000
    9     0.00000000000000     0.00000000000000     0.00000000000000     1.00000000000000     0.00000000000000
   10     0.00000000000000     0.00000000000000     0.00000000000000     0.00000000000000     1.00000000000000



  ## Kinetic (Symmetry 0) ##
  Irrep: 1 Size: 10 x 10

                 1                   2                   3                   4                   5

    1     0.96945722711242     0.20123413106538     0.00000000000000     0.00000000000000     0.00000000000000
    2     0.20123413106538     0.18300000000000     0.00000000000000     0.00000000000000     0.00000000000000
    3     0.00000000000000     0.00000000000000     1.81750000000000     0.00000000000000     0.00000000000000
    4     0.00000000000000     0.00000000000000     0.00000000000000     1.81750000000000     0.00000000000000
    5     0.00000000000000     0.00000000000000     0.00000000000000     0.00000000000000     1.81750000000000
    6     0.09774181479005     0.10856605309856     0.34171741831377     0.00000000000000     0.00000000000000
    7     0.10856605309856     0.12580538858505     0.08327279906454     0.00000000000000     0.00000000000000
    8    -0.34171741831377    -0.08327279906454    -0.89620211749465     0.00000000000000     0.00000000000000
    9     0.00000000000000     0.00000000000000     0.00000000000000     0.23859390228811     0.00000000000000
   10     0.00000000000000     0.00000000000000     0.00000000000000     0.00000000000000     0.23859390228811

                 6                   7                   8                   9                  10

    1     0.09774181479005     0.10856605309856    -0.34171741831377     0.00000000000000     0.00000000000000
    2     0.10856605309856     0.12580538858505    -0.08327279906454     0.00000000000000     0.00000000000000
    3     0.34171741831377     0.08327279906454    -0.89620211749465     0.00000000000000     0.00000000000000
    4     0.00000000000000     0.00000000000000     0.00000000000000     0.23859390228811     0.00000000000000
    5     0.00000000000000     0.00000000000000     0.00000000000000     0.00000000000000     0.23859390228811
    6     0.96945722711242     0.20123413106538    -0.00000000000000     0.00000000000000     0.00000000000000
    7     0.20123413106538     0.18300000000000    -0.00000000000000     0.00000000000000     0.00000000000000
    8    -0.00000000000000    -0.00000000000000     1.81750000000000     0.00000000000000     0.00000000000000
    9     0.00000000000000     0.00000000000000     0.00000000000000     1.81750000000000     0.00000000000000
   10     0.00000000000000     0.00000000000000     0.00000000000000     0.00000000000000     1.81750000000000



  ## Potential (Symmetry 0) ##
  Irrep: 1 Size: 10 x 10

                 1                   2                   3                   4                   5

    1    -1.90292357760548    -0.99791092370337    -0.16998647827047     0.00000000000000     0.00000000000000
    2    -0.99791092370337    -0.98770528048000    -0.14731984590992     0.00000000000000     0.00000000000000
    3    -0.16998647827047    -0.14731984590992    -1.52835088813008     0.00000000000000     0.00000000000000
    4     0.00000000000000     0.00000000000000     0.00000000000000    -1.38542116711783     0.00000000000000
    5     0.00000000000000     0.00000000000000     0.00000000000000     0.00000000000000    -1.38542116711783
    6    -0.67772137741609    -0.72975026760018    -0.81011155629267     0.00000000000000     0.00000000000000
    7    -0.72975026760018    -0.83549450576911    -0.36152671367317     0.00000000000000     0.00000000000000
    8     0.81011155629267     0.36152671367317     0.78535897658410     0.00000000000000     0.00000000000000
    9     0.00000000000000     0.00000000000000     0.00000000000000    -0.39543532921353     0.00000000000000
   10     0.00000000000000     0.00000000000000     0.00000000000000     0.00000000000000    -0.39543532921353

                 6                   7                   8                   9                  10

    1    -0.67772137741609    -0.72975026760018     0.81011155629267     0.00000000000000     0.00000000000000
    2    -0.72975026760018    -0.83549450576911     0.36152671367317     0.00000000000000     0.00000000000000
    3    -0.81011155629267    -0.36152671367317     0.78535897658410     0.00000000000000     0.00000000000000
    4     0.00000000000000     0.00000000000000     0.00000000000000    -0.39543532921353     0.00000000000000
    5     0.00000000000000     0.00000000000000     0.00000000000000     0.00000000000000    -0.39543532921353
    6    -1.90292357760548    -0.99791092370337     0.16998647827047     0.00000000000000     0.00000000000000
    7    -0.99791092370337    -0.98770528048000     0.14731984590992     0.00000000000000     0.00000000000000
    8     0.16998647827047     0.14731984590992    -1.52835088813008     0.00000000000000     0.00000000000000
    9     0.00000000000000     0.00000000000000     0.00000000000000    -1.38542116711783     0.00000000000000
   10     0.00000000000000     0.00000000000000     0.00000000000000     0.00000000000000    -1.38542116711783



  ## One Electron Ints (Symmetry 0) ##
  Irrep: 1 Size: 10 x 10

                 1                   2                   3                   4                   5

    1    -0.93346635049306    -0.79667679263798    -0.16998647827047     0.00000000000000     0.00000000000000
    2    -0.79667679263798    -0.80470528048000    -0.14731984590992     0.00000000000000     0.00000000000000
    3    -0.16998647827047    -0.14731984590992     0.28914911186992     0.00000000000000     0.00000000000000
    4     0.00000000000000     0.00000000000000     0.00000000000000     0.43207883288217     0.00000000000000
    5     0.00000000000000     0.00000000000000     0.00000000000000     0.00000000000000     0.43207883288217
    6    -0.57997956262604    -0.62118421450162    -0.46839413797890     0.00000000000000     0.00000000000000
    7    -0.62118421450162    -0.70968911718406    -0.27825391460863     0.00000000000000     0.00000000000000
    8     0.46839413797890     0.27825391460863    -0.11084314091055     0.00000000000000     0.00000000000000
    9     0.00000000000000     0.00000000000000     0.00000000000000    -0.15684142692542     0.00000000000000
   10     0.00000000000000     0.00000000000000     0.00000000000000     0.00000000000000    -0.15684142692542

                 6                   7                   8                   9                  10

    1    -0.57997956262604    -0.62118421450162     0.46839413797890     0.00000000000000     0.00000000000000
    2    -0.62118421450162    -0.70968911718406     0.27825391460863     0.00000000000000     0.00000000000000
    3    -0.46839413797890    -0.27825391460863    -0.11084314091055     0.00000000000000     0.00000000000000
    4     0.00000000000000     0.00000000000000     0.00000000000000    -0.15684142692542     0.00000000000000
    5     0.00000000000000     0.00000000000000     0.00000000000000     0.00000000000000    -0.15684142692542
    6    -0.93346635049306    -0.79667679263798     0.16998647827047     0.00000000000000     0.00000000000000
    7    -0.79667679263798    -0.80470528048000     0.14731984590992     0.00000000000000     0.00000000000000
    8     0.16998647827047     0.14731984590992     0.28914911186992     0.00000000000000     0.00000000000000
    9     0.00000000000000     0.00000000000000     0.00000000000000     0.43207883288217     0.00000000000000
   10     0.00000000000000     0.00000000000000     0.00000000000000     0.00000000000000     0.43207883288217




	There are 0 unique integrals

  ## Fock (Symmetry 0) ##
  Irrep: 1 Size: 10 x 10

                 1                   2                   3                   4                   5

    1    -0.43054264741967    -0.28509905242769     0.17686432052934    -0.00000000000000     0.00000000000000
    2    -0.28509905242769    -0.34367883467407     0.18370587079159     0.00000000000000     0.00000000000000
    3     0.17686432052934     0.18370587079159     0.84400657280960     0.00000000000000     0.00000000000000
    4    -0.00000000000000     0.00000000000000     0.00000000000000     0.51316635125641     0.00000000000000
    5     0.00000000000000     0.00000000000000     0.00000000000000     0.00000000000000     0.51316635125641
    6    -0.29342708925155    -0.14648070966619    -0.59649895210365    -0.00000000000000     0.00000000000000
    7    -0.14648070966619    -0.15282016697806    -0.17832428426877    -0.00000000000000     0.00000000000000
    8     0.59649895210365     0.17832428426877     0.40657750617490    -0.00000000000000     0.00000000000000
    9     0.00000000000000    -0.00000000000000     0.00000000000000    -0.29696405981887     0.00000000000000
   10     0.00000000000000     0.00000000000000     0.00000000000000     0.00000000000000    -0.29696405981887

                 6                   7                   8                   9                  10

    1    -0.29342708925155    -0.14648070966619     0.59649895210365     0.00000000000000     0.00000000000000
    2    -0.14648070966619    -0.15282016697806     0.17832428426877    -0.00000000000000     0.00000000000000
    3    -0.59649895210365    -0.17832428426877     0.40657750617490     0.00000000000000     0.00000000000000
    4    -0.00000000000000    -0.00000000000000    -0.00000000000000    -0.29696405981887     0.00000000000000
    5     0.00000000000000     0.00000000000000     0.00000000000000     0.00000000000000    -0.29696405981887
    6    -0.43054264741967    -0.28509905242769    -0.17686432052934    -0.00000000000000     0.00000000000000
    7    -0.28509905242769    -0.34367883467407    -0.18370587079159     0.00000000000000     0.00000000000000
    8    -0.17686432052934    -0.18370587079159     0.84400657280960    -0.00000000000000     0.00000000000000
    9    -0.00000000000000     0.00000000000000    -0.00000000000000     0.51316635125641     0.00000000000000
   10     0.00000000000000     0.00000000000000     0.00000000000000     0.00000000000000     0.51316635125641



  ## C (Symmetry 0) ##
  Irrep: 1 Size: 10 x 10

                 1                   2                   3                   4                   5

    1     0.68263929699380     0.26661590720746     0.43591547625145     0.29685504168856     0.17887034302309
    2     0.59573914705923     0.51012386624549     0.02462124584648     0.11873139363167     0.02968723663251
    3     0.66993148122695    -0.59554516402868     0.37482354785975     0.34041662079756     0.29685504168856
    4     0.39870852091520    -0.60531604663456    -0.06812613693123     0.00000000000000     0.10132029201900
    5    -0.03900338945248    -0.01530819850937    -0.09225072489921    -0.72802278226499     0.00000000000000
    6    -0.41986222349906     0.17579133813765     0.18507772280031    -0.17316369903828    -1.05265293992586
    7    -0.09307110602611    -0.44897973471862    -1.04011706361368    -0.15007526932053     0.32378850105955
    8     0.44013472205613    -0.03285978120454     0.25777494777417     0.95599401024714     0.17316369903828
    9    -0.05548901044540     0.08424296615827     0.00948124187340    -0.00000000000000    -0.72802278226499
   10     0.28025339782516     0.10999491857138     0.66285467667716     0.10132029201900     0.00000000000000

                 6                   7                   8                   9                  10

    1     1.16371604964261     0.61284870405156    -0.17506306180233    -0.29685504168856     0.17887034302309
    2    -1.41116125296157    -0.93425010248374    -1.11281520246965    -0.11873139363167     0.02968723663251
    3     0.44695344778425    -0.75602331585910    -0.49572807727713    -0.34041662079756     0.29685504168856
    4    -0.39870852091520     0.60531604663456    -0.06812613693123    -0.00000000000000    -0.10132029201900
    5     0.03900338945248     0.01530819850937    -0.09225072489921    -0.72802278226499     0.00000000000000
    6    -0.37575367934894     0.20753642771375    -0.16116091498110     0.17316369903828    -1.05265293992586
    7     0.85512545480709     0.23344099213552     1.55425407169783     0.15007526932053     0.32378850105955
    8     0.26372662510741    -0.15982136988287    -0.35342803798084    -0.95599401024714     0.17316369903828
    9     0.05548901044540    -0.08424296615827     0.00948124187340     0.00000000000000     0.72802278226499
   10    -0.28025339782516    -0.10999491857138     0.66285467667716     0.10132029201900     0.00000000000000




 In Bisection function HOMO = -1.129  LUMO =  1.638

 0.25435 = (-1.12894 + 1.63764)/2.0
 sum -  nocc_ = 5.00000000
 On Iteration in Bisection 0
 a: 5.00000  b:-0.50000

 -0.43730 = (-1.12894 + 0.25435)/2.0
 sum -  nocc_ = 1.00000000
 On Iteration in Bisection 1
 a: 1.00000  b:-0.50000

 -0.78312 = (-1.12894 + -0.43730)/2.0
 sum -  nocc_ = 0.00000000
 ef = -0.78312 sum = 1.00000 

 Iter: 0  T:      100.000  val:-0.783122  sumni 0.00000
 ne = 1.0000

Nuc Replusion =       0.529177208590
 1st iteration =      -0.376989865771
 In Bisection function HOMO = -0.289  LUMO =  2.641

 1.17614 = (-0.28866 + 2.64093)/2.0
 sum -  nocc_ = 3.00000000
 On Iteration in Bisection 0
 a: 3.00000  b:-0.50000

 0.44374 = (-0.28866 + 1.17614)/2.0
 sum -  nocc_ = 1.00000000
 On Iteration in Bisection 1
 a: 1.00000  b:-0.50000

 0.07754 = (-0.28866 + 0.44374)/2.0
 sum -  nocc_ = 0.00000000
 ef = 0.07754 sum = 1.00000 

 Iter: 0  T:      100.000  val:0.077542  sumni 0.00000
 ne = 1.0000

 iter:1  failiter:1  energy:     -1.353684307176  total:     -0.824507098586  error:     -0.253530543089
 In Bisection function HOMO = -0.543  LUMO =  2.692

 1.07465 = (-0.54280 + 2.69210)/2.0
 sum -  nocc_ = 3.00000000
 On Iteration in Bisection 0
 a: 3.00000  b:-0.50000

 0.26592 = (-0.54280 + 1.07465)/2.0
 sum -  nocc_ = 1.00000000
 On Iteration in Bisection 1
 a: 1.00000  b:-0.50000

 -0.13844 = (-0.54280 + 0.26592)/2.0
 sum -  nocc_ = 0.00000000
 ef = -0.13844 sum = 1.00000 

 Iter: 1  T:      100.000  val:-0.138442  sumni 0.00000
 ne = 1.0000

 iter:2  failiter:2  energy:     -1.642708693460  total:     -1.113531484870  error:     -0.289024386284
 In Bisection function HOMO = -0.529  LUMO =  2.728

 1.09945 = (-0.52886 + 2.72775)/2.0
 sum -  nocc_ = 3.00000000
 On Iteration in Bisection 0
 a: 3.00000  b:-0.50000

 0.28530 = (-0.52886 + 1.09945)/2.0
 sum -  nocc_ = 1.00000000
 On Iteration in Bisection 1
 a: 1.00000  b:-0.50000

 -0.12178 = (-0.52886 + 0.28530)/2.0
 sum -  nocc_ = 0.00000000
 ef = -0.12178 sum = 1.00000 

 Iter: 2  T:      100.000  val:-0.121780  sumni 0.00000
 ne = 1.0000

 iter:3  failiter:3  energy:     -1.632405036247  total:     -1.103227827657  error:      0.010303657212
 In Bisection function HOMO = -0.526  LUMO =  2.734

 1.10411 = (-0.52577 + 2.73398)/2.0
 sum -  nocc_ = 3.00000000
 On Iteration in Bisection 0
 a: 3.00000  b:-0.50000

 0.28917 = (-0.52577 + 1.10411)/2.0
 sum -  nocc_ = 1.00000000
 On Iteration in Bisection 1
 a: 1.00000  b:-0.50000

 -0.11830 = (-0.52577 + 0.28917)/2.0
 sum -  nocc_ = 0.00000000
 ef = -0.11830 sum = 1.00000 

 Iter: 3  T:      100.000  val:-0.118296  sumni 0.00000
 ne = 1.0000

 iter:4  failiter:4  energy:     -1.629915893828  total:     -1.100738685238  error:      0.002489142420
 In Bisection function HOMO = -0.525  LUMO =  2.735

 1.10498 = (-0.52518 + 2.73514)/2.0
 sum -  nocc_ = 3.00000000
 On Iteration in Bisection 0
 a: 3.00000  b:-0.50000

 0.28990 = (-0.52518 + 1.10498)/2.0
 sum -  nocc_ = 1.00000000
 On Iteration in Bisection 1
 a: 1.00000  b:-0.50000

 -0.11764 = (-0.52518 + 0.28990)/2.0
 sum -  nocc_ = 0.00000000
 ef = -0.11764 sum = 1.00000 

 Iter: 4  T:      100.000  val:-0.117640  sumni 0.00000
 ne = 1.0000

 iter:5  failiter:5  energy:     -1.629441173405  total:     -1.100263964815  error:      0.000474720423
 In Bisection function HOMO = -0.525  LUMO =  2.735

 1.10514 = (-0.52507 + 2.73536)/2.0
 sum -  nocc_ = 3.00000000
 On Iteration in Bisection 0
 a: 3.00000  b:-0.50000

 0.29004 = (-0.52507 + 1.10514)/2.0
 sum -  nocc_ = 1.00000000
 On Iteration in Bisection 1
 a: 1.00000  b:-0.50000

 -0.11752 = (-0.52507 + 0.29004)/2.0
 sum -  nocc_ = 0.00000000
 ef = -0.11752 sum = 1.00000 

 Iter: 5  T:      100.000  val:-0.117516  sumni 0.00000
 ne = 1.0000

 iter:6  failiter:6  energy:     -1.629351853440  total:     -1.100174644850  error:      0.000089319965
 In Bisection function HOMO = -0.525  LUMO =  2.735

 1.10518 = (-0.52505 + 2.73540)/2.0
 sum -  nocc_ = 3.00000000
 On Iteration in Bisection 0
 a: 3.00000  b:-0.50000

 0.29006 = (-0.52505 + 1.10518)/2.0
 sum -  nocc_ = 1.00000000
 On Iteration in Bisection 1
 a: 1.00000  b:-0.50000

 -0.11749 = (-0.52505 + 0.29006)/2.0
 sum -  nocc_ = 0.00000000
 ef = -0.11749 sum = 1.00000 

 Iter: 6  T:      100.000  val:-0.117492  sumni 0.00000
 ne = 1.0000

 iter:7  failiter:7  energy:     -1.629334953148  total:     -1.100157744558  error:      0.000016900291
 In Bisection function HOMO = -0.525  LUMO =  2.735

 1.10518 = (-0.52504 + 2.73541)/2.0
 sum -  nocc_ = 3.00000000
 On Iteration in Bisection 0
 a: 3.00000  b:-0.50000

 0.29007 = (-0.52504 + 1.10518)/2.0
 sum -  nocc_ = 1.00000000
 On Iteration in Bisection 1
 a: 1.00000  b:-0.50000

 -0.11749 = (-0.52504 + 0.29007)/2.0
 sum -  nocc_ = 0.00000000
 ef = -0.11749 sum = 1.00000 

 Iter: 7  T:      100.000  val:-0.117488  sumni 0.00000
 ne = 1.0000

 iter:8  failiter:8  energy:     -1.629331735136  total:     -1.100154526546  error:      0.000003218012
 In Bisection function HOMO = -0.525  LUMO =  2.735

 1.10518 = (-0.52504 + 2.73541)/2.0
 sum -  nocc_ = 3.00000000
 On Iteration in Bisection 0
 a: 3.00000  b:-0.50000

 0.29007 = (-0.52504 + 1.10518)/2.0
 sum -  nocc_ = 1.00000000
 On Iteration in Bisection 1
 a: 1.00000  b:-0.50000

 -0.11749 = (-0.52504 + 0.29007)/2.0
 sum -  nocc_ = 0.00000000
 ef = -0.11749 sum = 1.00000 

 Iter: 8  T:      100.000  val:-0.117487  sumni 0.00000
 ne = 1.0000

 iter:9  failiter:9  energy:     -1.629331119262  total:     -1.100153910672  error:      0.000000615874
 In Bisection function HOMO = -0.525  LUMO =  2.735

 1.10518 = (-0.52504 + 2.73541)/2.0
 sum -  nocc_ = 3.00000000
 On Iteration in Bisection 0
 a: 3.00000  b:-0.50000

 0.29007 = (-0.52504 + 1.10518)/2.0
 sum -  nocc_ = 1.00000000
 On Iteration in Bisection 1
 a: 1.00000  b:-0.50000

 -0.11749 = (-0.52504 + 0.29007)/2.0
 sum -  nocc_ = 0.00000000
 ef = -0.11749 sum = 1.00000 

 Iter: 9  T:      100.000  val:-0.117487  sumni 0.00000
 ne = 1.0000

 iter:10  failiter:10  energy:     -1.629331000936  total:     -1.100153792346  error:      0.000000118326
 In Bisection function HOMO = -0.525  LUMO =  2.735

 1.10518 = (-0.52504 + 2.73541)/2.0
 sum -  nocc_ = 3.00000000
 On Iteration in Bisection 0
 a: 3.00000  b:-0.50000

 0.29007 = (-0.52504 + 1.10518)/2.0
 sum -  nocc_ = 1.00000000
 On Iteration in Bisection 1
 a: 1.00000  b:-0.50000

 -0.11749 = (-0.52504 + 0.29007)/2.0
 sum -  nocc_ = 0.00000000
 ef = -0.11749 sum = 1.00000 

 Iter: 10  T:      100.000  val:-0.117487  sumni 0.00000
 ne = 1.0000

 iter:11  failiter:11  energy:     -1.629330978136  total:     -1.100153769546  error:      0.000000022800
 In Bisection function HOMO = -0.525  LUMO =  2.735

 1.10518 = (-0.52504 + 2.73541)/2.0
 sum -  nocc_ = 3.00000000
 On Iteration in Bisection 0
 a: 3.00000  b:-0.50000

 0.29007 = (-0.52504 + 1.10518)/2.0
 sum -  nocc_ = 1.00000000
 On Iteration in Bisection 1
 a: 1.00000  b:-0.50000

 -0.11749 = (-0.52504 + 0.29007)/2.0
 sum -  nocc_ = 0.00000000
 ef = -0.11749 sum = 1.00000 

 Iter: 11  T:      100.000  val:-0.117487  sumni 0.00000
 ne = 1.0000

 iter:12  failiter:12  energy:     -1.629330973733  total:     -1.100153765143  error:      0.000000004403
 In Bisection function HOMO = -0.525  LUMO =  2.735

 1.10518 = (-0.52504 + 2.73541)/2.0
 sum -  nocc_ = 3.00000000
 On Iteration in Bisection 0
 a: 3.00000  b:-0.50000

 0.29007 = (-0.52504 + 1.10518)/2.0
 sum -  nocc_ = 1.00000000
 On Iteration in Bisection 1
 a: 1.00000  b:-0.50000

 -0.11749 = (-0.52504 + 0.29007)/2.0
 sum -  nocc_ = 0.00000000
 ef = -0.11749 sum = 1.00000 

 Iter: 12  T:      100.000  val:-0.117487  sumni 0.00000
 ne = 1.0000

 iter:13  failiter:13  energy:     -1.629330972882  total:     -1.100153764292  error:      0.000000000852
 In Bisection function HOMO = -0.525  LUMO =  2.735

 1.10518 = (-0.52504 + 2.73541)/2.0
 sum -  nocc_ = 3.00000000
 On Iteration in Bisection 0
 a: 3.00000  b:-0.50000

 0.29007 = (-0.52504 + 1.10518)/2.0
 sum -  nocc_ = 1.00000000
 On Iteration in Bisection 1
 a: 1.00000  b:-0.50000

 -0.11749 = (-0.52504 + 0.29007)/2.0
 sum -  nocc_ = 0.00000000
 ef = -0.11749 sum = 1.00000 

 Iter: 13  T:      100.000  val:-0.117487  sumni 0.00000
 ne = 1.0000

 iter:14  failiter:14  energy:     -1.629330972717  total:     -1.100153764127  error:      0.000000000165
 In Bisection function HOMO = -0.525  LUMO =  2.735

 1.10518 = (-0.52504 + 2.73541)/2.0
 sum -  nocc_ = 3.00000000
 On Iteration in Bisection 0
 a: 3.00000  b:-0.50000

 0.29007 = (-0.52504 + 1.10518)/2.0
 sum -  nocc_ = 1.00000000
 On Iteration in Bisection 1
 a: 1.00000  b:-0.50000

 -0.11749 = (-0.52504 + 0.29007)/2.0
 sum -  nocc_ = 0.00000000
 ef = -0.11749 sum = 1.00000 

 Iter: 14  T:      100.000  val:-0.117487  sumni 0.00000
 ne = 1.0000

 iter:15  failiter:15  energy:     -1.629330972685  total:     -1.100153764095  error:      0.000000000032
 In Bisection function HOMO = -0.525  LUMO =  2.735

 1.10518 = (-0.52504 + 2.73541)/2.0
 sum -  nocc_ = 3.00000000
 On Iteration in Bisection 0
 a: 3.00000  b:-0.50000

 0.29007 = (-0.52504 + 1.10518)/2.0
 sum -  nocc_ = 1.00000000
 On Iteration in Bisection 1
 a: 1.00000  b:-0.50000

 -0.11749 = (-0.52504 + 0.29007)/2.0
 sum -  nocc_ = 0.00000000
 ef = -0.11749 sum = 1.00000 

 Iter: 15  T:      100.000  val:-0.117487  sumni 0.00000
 ne = 1.0000

 iter:16  failiter:16  energy:     -1.629330972679  total:     -1.100153764089  error:      0.000000000006
 In Bisection function HOMO = -0.525  LUMO =  2.735

 1.10518 = (-0.52504 + 2.73541)/2.0
 sum -  nocc_ = 3.00000000
 On Iteration in Bisection 0
 a: 3.00000  b:-0.50000

 0.29007 = (-0.52504 + 1.10518)/2.0
 sum -  nocc_ = 1.00000000
 On Iteration in Bisection 1
 a: 1.00000  b:-0.50000

 -0.11749 = (-0.52504 + 0.29007)/2.0
 sum -  nocc_ = 0.00000000
 ef = -0.11749 sum = 1.00000 

 Iter: 16  T:      100.000  val:-0.117487  sumni 0.00000
 ne = 1.0000

 iter:17  failiter:17  energy:     -1.629330972678  total:     -1.100153764088  error:      0.000000000001
 In Bisection function HOMO = -0.525  LUMO =  2.735

 1.10518 = (-0.52504 + 2.73541)/2.0
 sum -  nocc_ = 3.00000000
 On Iteration in Bisection 0
 a: 3.00000  b:-0.50000

 0.29007 = (-0.52504 + 1.10518)/2.0
 sum -  nocc_ = 1.00000000
 On Iteration in Bisection 1
 a: 1.00000  b:-0.50000

 -0.11749 = (-0.52504 + 0.29007)/2.0
 sum -  nocc_ = 0.00000000
 ef = -0.11749 sum = 1.00000 

 Iter: 17  T:      100.000  val:-0.117487  sumni 0.00000
 ne = 1.0000

 iter:18  failiter:18  energy:     -1.629330972677  total:     -1.100153764087  error:      0.000000000000
 FTHFEnergy =    -1.100154
 FD_dis[0] = 1.00000000 with -0.525044 eig value
 FD_dis[1] = 0.00000000 with 0.143588 eig value
 FD_dis[2] = 0.00000000 with 0.539607 eig value
 FD_dis[3] = 0.00000000 with 0.794799 eig value
 FD_dis[4] = 0.00000000 with 1.287130 eig value
 FD_dis[5] = 0.00000000 with 1.287130 eig value
 FD_dis[6] = 0.00000000 with 1.679162 eig value
 FD_dis[7] = 0.00000000 with 1.871551 eig value
 FD_dis[8] = 0.00000000 with 1.871551 eig value
 FD_dis[9] = 0.00000000 with 2.735411 eig value
*** PSI4 exiting successfully. Buy a developer a beer!
