    -----------------------------------------------------------------------
          PSI4: An Open-Source Ab Initio Electronic Structure Package
                              PSI 4.0 Driver

               Git: Rev {master} 556e8139d3cfa1f96ccffe2cdf22cc56a185d2b2

    J. M. Turney, A. C. Simmonett, R. M. Parrish, E. G. Hohenstein,
    F. A. Evangelista, J. T. Fermann, B. J. Mintz, L. A. Burns, J. J. Wilke,
    M. L. Abrams, N. J. Russ, M. L. Leininger, C. L. Janssen, E. T. Seidl,
    W. D. Allen, H. F. Schaefer, R. A. King, E. F. Valeev, C. D. Sherrill,
    and T. D. Crawford, WIREs Comput. Mol. Sci. 2, 556-565 (2012)
    (doi: 10.1002/wcms.93)

                         Additional Contributions by
    A. E. DePrince, M. Saitow, U. Bozkaya, A. Yu. Sokolov
    -----------------------------------------------------------------------

    Process ID:  11950
    PSI4DATADIR: /Users/kevinhannon/Programs/psi4cmake/psi4/lib
    Memory level set to 256.000 MB

  ==> Input File <==

--------------------------------------------------------------------------

# PYTHONPATH must include directory above plugin directory.
#     Define either externally or here, then import plugin.
sys.path.insert(0, '/Users/kevinhannon/Programs/Quantum_Programs/Quantum-Programs/GS/')
import scf

molecule {
0 1
H
H 1 2.50000
symmetry c1
units angstrom
}


set {
  basis cc-pvdz
  reference rhf
  scf_type  pk
}

set scf {
  DO_FTHF true
  MAX_ITER 130
  MAX_TEMP 100
  TEMP_INCREMENT 0
  bisect  true
  bisect_iter  40
}
energy('rhf')

energy('scf')


--------------------------------------------------------------------------

*** tstart() called on Kevins-MacBook-Pro.local
*** at Fri Apr 10 18:02:14 2015

/Users/kevinhannon/Programs/Quantum_Programs/Quantum-Programs/GS/scf/scf.so loaded.

*** tstart() called on Kevins-MacBook-Pro.local
*** at Fri Apr 10 18:02:14 2015


         ---------------------------------------------------------
                                   SCF
            by Justin Turney, Rob Parrish, and Andy Simmonett
                              RHF Reference
                        1 Threads,    256 MiB Core
         ---------------------------------------------------------

  ==> Geometry <==

    Molecular point group: c1
    Full point group: D_inf_h

    Geometry (in Angstrom), charge = 0, multiplicity = 1:

       Center              X                  Y                   Z       
    ------------   -----------------  -----------------  -----------------
           H          0.000000000000     0.000000000000    -1.250000000000
           H          0.000000000000     0.000000000000     1.250000000000

  Running in c1 symmetry.

  Rotational constants: A = ************  B =      5.35256  C =      5.35256 [cm^-1]
  Rotational constants: A = ************  B = 160465.63288  C = 160465.63288 [MHz]
  Nuclear repulsion =    0.211670883436000

  Charge       = 0
  Multiplicity = 1
  Electrons    = 2
  Nalpha       = 1
  Nbeta        = 1

  ==> Algorithm <==

  SCF Algorithm Type is PK.
  DIIS enabled.
  MOM disabled.
  Fractional occupation disabled.
  Guess Type is CORE.
  Energy threshold   = 1.00e-06
  Density threshold  = 1.00e-06
  Integral threshold = 0.00e+00

  ==> Primary Basis <==

  Basis Set: CC-PVDZ
    Number of shells: 6
    Number of basis function: 10
    Number of Cartesian functions: 10
    Spherical Harmonics?: true
    Max angular momentum: 1

  ==> Pre-Iterations <==

   -------------------------------------------------------
    Irrep   Nso     Nmo     Nalpha   Nbeta   Ndocc  Nsocc
   -------------------------------------------------------
     A         10      10       0       0       0       0
   -------------------------------------------------------
    Total      10      10       1       1       1       0
   -------------------------------------------------------

  Starting with a DF guess...

 OEINTS: Overlap, kinetic, potential, dipole, and quadrupole integrals
         stored in file 35.

  ==> Integral Setup <==

  ==> DFJK: Density-Fitted J/K Matrices <==

    J tasked:                  Yes
    K tasked:                  Yes
    wK tasked:                  No
    OpenMP threads:              1
    Integrals threads:           1
    Memory (MB):               183
    Algorithm:                Core
    Integral Cache:           NONE
    Schwarz Cutoff:          1E-12
    Fitting Condition:       1E-12

   => Auxiliary Basis Set <=

  Basis Set: 
    Number of shells: 18
    Number of basis function: 46
    Number of Cartesian functions: 50
    Spherical Harmonics?: true
    Max angular momentum: 2

  Minimum eigenvalue in the overlap matrix is 2.4626615138E-01.
  Using Symmetric Orthogonalization.
  SCF Guess: Core (One-Electron) Hamiltonian.

  ==> Iterations <==

                           Total Energy        Delta E     RMS |[F,P]|

   @DF-RHF iter   1:    -0.84661871123706   -8.46619e-01   1.26195e-02 
   @DF-RHF iter   2:    -0.86477751987096   -1.81588e-02   2.17926e-03 DIIS
   @DF-RHF iter   3:    -0.86535170017198   -5.74180e-04   3.96138e-05 DIIS
   @DF-RHF iter   4:    -0.86535183950499   -1.39333e-07   8.38282e-07 DIIS

  DF guess converged.

  ==> Integral Setup <==

 MINTS: Wrapper to libmints.
   by Justin Turney

   Calculation information:
      Number of atoms:                   2
      Number of AO shells:               6
      Number of SO shells:               6
      Number of primitives:             10
      Number of atomic orbitals:        10
      Number of basis functions:        10

      Number of irreps:                  1
      Integral cutoff                 0.00e+00
      Number of functions per irrep: [  10 ]

 OEINTS: Overlap, kinetic, potential, dipole, and quadrupole integrals
         stored in file 35.

      Computing two-electron integrals...done
      Computed 512 non-zero two-electron integrals.
        Stored in file 33.

	Batch   1 pq = [       0,      55] index = [             0,1540]
  ==> DiskJK: Disk-Based J/K Matrices <==

    J tasked:                  Yes
    K tasked:                  Yes
    wK tasked:                  No
    Memory (MB):               183
    Schwarz Cutoff:          1E-12

   @RHF iter   5:    -0.86533011483784    2.17247e-05   6.27993e-06 DIIS
   @RHF iter   6:    -0.86533011898883   -4.15099e-09   1.05292e-06 DIIS
   @RHF iter   7:    -0.86533011911714   -1.28317e-10   2.63738e-08 DIIS

  ==> Post-Iterations <==

    Orbital Energies (a.u.)
    -----------------------

    Doubly Occupied:                                                      

       1A     -0.349336  

    Virtual:                                                              

       2A     -0.084657     3A      0.624634     4A      0.667771  
       5A      1.453187     6A      1.463173     7A      1.463173  
       8A      1.470798     9A      1.470798    10A      1.523698  

    Final Occupation by Irrep:
              A 
    DOCC [     1 ]

  Energy converged.

  @RHF Final Energy:    -0.86533011911714

   => Energetics <=

    Nuclear Repulsion Energy =              0.2116708834360000
    One-Electron Energy =                  -1.4553307991807083
    Two-Electron Energy =                   0.3783297966275641
    DFT Exchange-Correlation Energy =       0.0000000000000000
    Empirical Dispersion Energy =           0.0000000000000000
    PCM Polarization Energy =               0.0000000000000000
    EFP Energy =                            0.0000000000000000
    Total Energy =                         -0.8653301191171441

    Alert: EFP and PCM quantities not currently incorporated into SCF psivars.

Properties will be evaluated at   0.000000,   0.000000,   0.000000 Bohr
  ==> Properties <==


Properties computed using the SCF density matrix

  Nuclear Dipole Moment: (a.u.)
     X:     0.0000      Y:     0.0000      Z:     0.0000

  Electronic Dipole Moment: (a.u.)
     X:    -0.0000      Y:    -0.0000      Z:    -0.0000

  Dipole Moment: (a.u.)
     X:    -0.0000      Y:    -0.0000      Z:    -0.0000     Total:     0.0000

  Dipole Moment: (Debye)
     X:    -0.0000      Y:    -0.0000      Z:    -0.0000     Total:     0.0000


  Saving occupied orbitals to File 180.

*** tstop() called on Kevins-MacBook-Pro.local at Fri Apr 10 18:02:14 2015
Module time:
	user time   =       0.20 seconds =       0.00 minutes
	system time =       0.01 seconds =       0.00 minutes
	total time  =          0 seconds =       0.00 minutes
Total time:
	user time   =       0.21 seconds =       0.00 minutes
	system time =       0.01 seconds =       0.00 minutes
	total time  =          0 seconds =       0.00 minutes

*** tstart() called on Kevins-MacBook-Pro.local
*** at Fri Apr 10 18:02:14 2015


         ---------------------------------------------------------
                                   SCF
            by Justin Turney, Rob Parrish, and Andy Simmonett
                              RHF Reference
                        1 Threads,    256 MiB Core
         ---------------------------------------------------------

  ==> Geometry <==

    Molecular point group: c1
    Full point group: D_inf_h

    Geometry (in Angstrom), charge = 0, multiplicity = 1:

       Center              X                  Y                   Z       
    ------------   -----------------  -----------------  -----------------
           H          0.000000000000     0.000000000000    -1.250000000000
           H          0.000000000000     0.000000000000     1.250000000000

  Running in c1 symmetry.

  Rotational constants: A = ************  B =      5.35256  C =      5.35256 [cm^-1]
  Rotational constants: A = ************  B = 160465.63288  C = 160465.63288 [MHz]
  Nuclear repulsion =    0.211670883436000

  Charge       = 0
  Multiplicity = 1
  Electrons    = 2
  Nalpha       = 1
  Nbeta        = 1

  ==> Algorithm <==

  SCF Algorithm Type is PK.
  DIIS enabled.
  MOM disabled.
  Fractional occupation disabled.
  Guess Type is CORE.
  Energy threshold   = 1.00e-08
  Density threshold  = 1.00e-08
  Integral threshold = 0.00e+00

  ==> Primary Basis <==

  Basis Set: CC-PVDZ
    Number of shells: 6
    Number of basis function: 10
    Number of Cartesian functions: 10
    Spherical Harmonics?: true
    Max angular momentum: 1

  ==> Pre-Iterations <==

   -------------------------------------------------------
    Irrep   Nso     Nmo     Nalpha   Nbeta   Ndocc  Nsocc
   -------------------------------------------------------
     A         10      10       0       0       0       0
   -------------------------------------------------------
    Total      10      10       1       1       1       0
   -------------------------------------------------------

  Starting with a DF guess...

 OEINTS: Overlap, kinetic, potential, dipole, and quadrupole integrals
         stored in file 35.

  ==> Integral Setup <==

  ==> DFJK: Density-Fitted J/K Matrices <==

    J tasked:                  Yes
    K tasked:                  Yes
    wK tasked:                  No
    OpenMP threads:              1
    Integrals threads:           1
    Memory (MB):               183
    Algorithm:                Core
    Integral Cache:           NONE
    Schwarz Cutoff:          1E-12
    Fitting Condition:       1E-12

   => Auxiliary Basis Set <=

  Basis Set: 
    Number of shells: 18
    Number of basis function: 46
    Number of Cartesian functions: 50
    Spherical Harmonics?: true
    Max angular momentum: 2

  Minimum eigenvalue in the overlap matrix is 2.4626615138E-01.
  Using Symmetric Orthogonalization.
  SCF Guess: Core (One-Electron) Hamiltonian.

  ==> Iterations <==

                           Total Energy        Delta E     RMS |[F,P]|

   @DF-RHF iter   1:    -0.84661871123706   -8.46619e-01   1.26195e-02 
   @DF-RHF iter   2:    -0.86477751987096   -1.81588e-02   2.17926e-03 DIIS
   @DF-RHF iter   3:    -0.86535170017198   -5.74180e-04   3.96138e-05 DIIS
   @DF-RHF iter   4:    -0.86535183950498   -1.39333e-07   8.38282e-07 DIIS
   @DF-RHF iter   5:    -0.86535183956118   -5.61908e-11   2.21727e-10 DIIS

  DF guess converged.

  ==> Integral Setup <==

 MINTS: Wrapper to libmints.
   by Justin Turney

   Calculation information:
      Number of atoms:                   2
      Number of AO shells:               6
      Number of SO shells:               6
      Number of primitives:             10
      Number of atomic orbitals:        10
      Number of basis functions:        10

      Number of irreps:                  1
      Integral cutoff                 0.00e+00
      Number of functions per irrep: [  10 ]

 OEINTS: Overlap, kinetic, potential, dipole, and quadrupole integrals
         stored in file 35.

      Computing two-electron integrals...done
      Computed 512 non-zero two-electron integrals.
        Stored in file 33.

	Batch   1 pq = [       0,      55] index = [             0,1540]
  ==> DiskJK: Disk-Based J/K Matrices <==

    J tasked:                  Yes
    K tasked:                  Yes
    wK tasked:                  No
    Memory (MB):               183
    Schwarz Cutoff:          1E-12

   @RHF iter   6:    -0.86533011483814    2.17247e-05   6.27971e-06 DIIS
   @RHF iter   7:    -0.86533011898884   -4.15070e-09   1.05288e-06 DIIS
   @RHF iter   8:    -0.86533011911714   -1.28308e-10   2.63729e-08 DIIS
   @RHF iter   9:    -0.86533011911721   -6.48370e-14   2.35753e-13 DIIS

  ==> Post-Iterations <==

    Orbital Energies (a.u.)
    -----------------------

    Doubly Occupied:                                                      

       1A     -0.349336  

    Virtual:                                                              

       2A     -0.084657     3A      0.624634     4A      0.667771  
       5A      1.453187     6A      1.463173     7A      1.463173  
       8A      1.470798     9A      1.470798    10A      1.523698  

    Final Occupation by Irrep:
              A 
    DOCC [     1 ]

  Energy converged.

  @RHF Final Energy:    -0.86533011911721

   => Energetics <=

    Nuclear Repulsion Energy =              0.2116708834360000
    One-Electron Energy =                  -1.4553308342191253
    Two-Electron Energy =                   0.3783298316659166
    DFT Exchange-Correlation Energy =       0.0000000000000000
    Empirical Dispersion Energy =           0.0000000000000000
    PCM Polarization Energy =               0.0000000000000000
    EFP Energy =                            0.0000000000000000
    Total Energy =                         -0.8653301191172086

    Alert: EFP and PCM quantities not currently incorporated into SCF psivars.

Properties will be evaluated at   0.000000,   0.000000,   0.000000 Bohr
  ==> Properties <==


Properties computed using the SCF density matrix

  Nuclear Dipole Moment: (a.u.)
     X:     0.0000      Y:     0.0000      Z:     0.0000

  Electronic Dipole Moment: (a.u.)
     X:    -0.0000      Y:     0.0000      Z:     0.0000

  Dipole Moment: (a.u.)
     X:    -0.0000      Y:     0.0000      Z:     0.0000     Total:     0.0000

  Dipole Moment: (Debye)
     X:    -0.0000      Y:     0.0000      Z:     0.0000     Total:     0.0000


  Saving occupied orbitals to File 180.

*** tstop() called on Kevins-MacBook-Pro.local at Fri Apr 10 18:02:15 2015
Module time:
	user time   =       0.19 seconds =       0.00 minutes
	system time =       0.01 seconds =       0.00 minutes
	total time  =          1 seconds =       0.02 minutes
Total time:
	user time   =       0.41 seconds =       0.01 minutes
	system time =       0.02 seconds =       0.00 minutes
	total time  =          1 seconds =       0.02 minutes
Reading options from the SCF block
Calling plugin scf.so.
    Molecular point group: c1
    Full point group: D_inf_h

    Geometry (in Angstrom), charge = 0, multiplicity = 1:

       Center              X                  Y                   Z       
    ------------   -----------------  -----------------  -----------------
           H          0.000000000000     0.000000000000    -1.250000000000
           H          0.000000000000     0.000000000000     1.250000000000


    Nuclear repulsion energy:       0.21167088

  ## Overlap (Symmetry 0) ##
  Irrep: 1 Size: 10 x 10

                 1                   2                   3                   4                   5

    1     1.00000000000000     0.68486025149275     0.00000000000000     0.00000000000000     0.00000000000000
    2     0.68486025149275     1.00000000000000     0.00000000000000     0.00000000000000     0.00000000000000
    3     0.00000000000000     0.00000000000000     1.00000000000000     0.00000000000000     0.00000000000000
    4     0.00000000000000     0.00000000000000     0.00000000000000     1.00000000000000     0.00000000000000
    5     0.00000000000000     0.00000000000000     0.00000000000000     0.00000000000000     1.00000000000000
    6     0.00471684750240     0.07760726124020     0.00504487156652     0.00000000000000     0.00000000000000
    7     0.07760726124020     0.25628415314370     0.06607960256047     0.00000000000000     0.00000000000000
    8    -0.00504487156652    -0.06607960256047    -0.00456194242482     0.00000000000000     0.00000000000000
    9     0.00000000000000     0.00000000000000     0.00000000000000     0.00029961478072     0.00000000000000
   10     0.00000000000000     0.00000000000000     0.00000000000000     0.00000000000000     0.00029961478072

                 6                   7                   8                   9                  10

    1     0.00471684750240     0.07760726124020    -0.00504487156652     0.00000000000000     0.00000000000000
    2     0.07760726124020     0.25628415314370    -0.06607960256047     0.00000000000000     0.00000000000000
    3     0.00504487156652     0.06607960256047    -0.00456194242482     0.00000000000000     0.00000000000000
    4     0.00000000000000     0.00000000000000     0.00000000000000     0.00029961478072     0.00000000000000
    5     0.00000000000000     0.00000000000000     0.00000000000000     0.00000000000000     0.00029961478072
    6     1.00000000000000     0.68486025149275    -0.00000000000000     0.00000000000000     0.00000000000000
    7     0.68486025149275     1.00000000000000    -0.00000000000000     0.00000000000000     0.00000000000000
    8    -0.00000000000000    -0.00000000000000     1.00000000000000     0.00000000000000     0.00000000000000
    9     0.00000000000000     0.00000000000000     0.00000000000000     1.00000000000000     0.00000000000000
   10     0.00000000000000     0.00000000000000     0.00000000000000     0.00000000000000     1.00000000000000



  ## Kinetic (Symmetry 0) ##
  Irrep: 1 Size: 10 x 10

                 1                   2                   3                   4                   5

    1     0.96945722711242     0.20123413106538     0.00000000000000     0.00000000000000     0.00000000000000
    2     0.20123413106538     0.18300000000000     0.00000000000000     0.00000000000000     0.00000000000000
    3     0.00000000000000     0.00000000000000     1.81750000000000     0.00000000000000     0.00000000000000
    4     0.00000000000000     0.00000000000000     0.00000000000000     1.81750000000000     0.00000000000000
    5     0.00000000000000     0.00000000000000     0.00000000000000     0.00000000000000     1.81750000000000
    6    -0.00752298750611    -0.01020384308727    -0.01024692585997     0.00000000000000     0.00000000000000
    7    -0.01020384308727     0.00433141895950     0.00232425608923     0.00000000000000     0.00000000000000
    8     0.01024692585997    -0.00232425608923     0.01508138585374     0.00000000000000     0.00000000000000
    9     0.00000000000000     0.00000000000000     0.00000000000000    -0.00122262618026     0.00000000000000
   10     0.00000000000000     0.00000000000000     0.00000000000000     0.00000000000000    -0.00122262618026

                 6                   7                   8                   9                  10

    1    -0.00752298750611    -0.01020384308727     0.01024692585997     0.00000000000000     0.00000000000000
    2    -0.01020384308727     0.00433141895950    -0.00232425608923     0.00000000000000     0.00000000000000
    3    -0.01024692585997     0.00232425608923     0.01508138585374     0.00000000000000     0.00000000000000
    4     0.00000000000000     0.00000000000000     0.00000000000000    -0.00122262618026     0.00000000000000
    5     0.00000000000000     0.00000000000000     0.00000000000000     0.00000000000000    -0.00122262618026
    6     0.96945722711242     0.20123413106538    -0.00000000000000     0.00000000000000     0.00000000000000
    7     0.20123413106538     0.18300000000000    -0.00000000000000     0.00000000000000     0.00000000000000
    8    -0.00000000000000    -0.00000000000000     1.81750000000000     0.00000000000000     0.00000000000000
    9     0.00000000000000     0.00000000000000     0.00000000000000     1.81750000000000     0.00000000000000
   10     0.00000000000000     0.00000000000000     0.00000000000000     0.00000000000000     1.81750000000000



  ## Potential (Symmetry 0) ##
  Irrep: 1 Size: 10 x 10

                 1                   2                   3                   4                   5

    1    -1.58953266808362    -0.79467211688866    -0.02818766500853     0.00000000000000     0.00000000000000
    2    -0.79467211688866    -0.76884461482811    -0.02644148768552     0.00000000000000     0.00000000000000
    3    -0.02818766500853    -0.02644148768552    -1.12527431741486     0.00000000000000     0.00000000000000
    4     0.00000000000000     0.00000000000000     0.00000000000000    -1.11549045763854     0.00000000000000
    5     0.00000000000000     0.00000000000000     0.00000000000000     0.00000000000000    -1.11549045763854
    6    -0.00402939620814    -0.08118605709035    -0.00430717767184     0.00000000000000     0.00000000000000
    7    -0.08118605709035    -0.19552766480214    -0.06233487085679     0.00000000000000     0.00000000000000
    8     0.00430717767184     0.06233487085679     0.00383131239738     0.00000000000000     0.00000000000000
    9     0.00000000000000     0.00000000000000     0.00000000000000    -0.00023804649961     0.00000000000000
   10     0.00000000000000     0.00000000000000     0.00000000000000     0.00000000000000    -0.00023804649961

                 6                   7                   8                   9                  10

    1    -0.00402939620814    -0.08118605709035     0.00430717767184     0.00000000000000     0.00000000000000
    2    -0.08118605709035    -0.19552766480214     0.06233487085679     0.00000000000000     0.00000000000000
    3    -0.00430717767184    -0.06233487085679     0.00383131239738     0.00000000000000     0.00000000000000
    4     0.00000000000000     0.00000000000000     0.00000000000000    -0.00023804649961     0.00000000000000
    5     0.00000000000000     0.00000000000000     0.00000000000000     0.00000000000000    -0.00023804649961
    6    -1.58953266808362    -0.79467211688866     0.02818766500853     0.00000000000000     0.00000000000000
    7    -0.79467211688866    -0.76884461482811     0.02644148768552     0.00000000000000     0.00000000000000
    8     0.02818766500853     0.02644148768552    -1.12527431741486     0.00000000000000     0.00000000000000
    9     0.00000000000000     0.00000000000000     0.00000000000000    -1.11549045763854     0.00000000000000
   10     0.00000000000000     0.00000000000000     0.00000000000000     0.00000000000000    -1.11549045763854



  ## One Electron Ints (Symmetry 0) ##
  Irrep: 1 Size: 10 x 10

                 1                   2                   3                   4                   5

    1    -0.62007544097119    -0.59343798582328    -0.02818766500853     0.00000000000000     0.00000000000000
    2    -0.59343798582328    -0.58584461482811    -0.02644148768552     0.00000000000000     0.00000000000000
    3    -0.02818766500853    -0.02644148768552     0.69222568258514     0.00000000000000     0.00000000000000
    4     0.00000000000000     0.00000000000000     0.00000000000000     0.70200954236146     0.00000000000000
    5     0.00000000000000     0.00000000000000     0.00000000000000     0.00000000000000     0.70200954236146
    6    -0.01155238371425    -0.09138990017762    -0.01455410353181     0.00000000000000     0.00000000000000
    7    -0.09138990017762    -0.19119624584264    -0.06001061476756     0.00000000000000     0.00000000000000
    8     0.01455410353181     0.06001061476756     0.01891269825112     0.00000000000000     0.00000000000000
    9     0.00000000000000     0.00000000000000     0.00000000000000    -0.00146067267987     0.00000000000000
   10     0.00000000000000     0.00000000000000     0.00000000000000     0.00000000000000    -0.00146067267987

                 6                   7                   8                   9                  10

    1    -0.01155238371425    -0.09138990017762     0.01455410353181     0.00000000000000     0.00000000000000
    2    -0.09138990017762    -0.19119624584264     0.06001061476756     0.00000000000000     0.00000000000000
    3    -0.01455410353181    -0.06001061476756     0.01891269825112     0.00000000000000     0.00000000000000
    4     0.00000000000000     0.00000000000000     0.00000000000000    -0.00146067267987     0.00000000000000
    5     0.00000000000000     0.00000000000000     0.00000000000000     0.00000000000000    -0.00146067267987
    6    -0.62007544097119    -0.59343798582328     0.02818766500853     0.00000000000000     0.00000000000000
    7    -0.59343798582328    -0.58584461482811     0.02644148768552     0.00000000000000     0.00000000000000
    8     0.02818766500853     0.02644148768552     0.69222568258514     0.00000000000000     0.00000000000000
    9     0.00000000000000     0.00000000000000     0.00000000000000     0.70200954236146     0.00000000000000
   10     0.00000000000000     0.00000000000000     0.00000000000000     0.00000000000000     0.70200954236146




	There are 0 unique integrals

  ## Fock (Symmetry 0) ##
  Irrep: 1 Size: 10 x 10

                 1                   2                   3                   4                   5

    1    -0.38627866166654    -0.35435878726536    -0.02976458484129    -0.00000000000000     0.00000000000000
    2    -0.35435878726536    -0.31087764907513     0.00226648200293    -0.00000000000000     0.00000000000000
    3    -0.02976458484129     0.00226648200293     0.70050104190062    -0.00000000000000     0.00000000000000
    4    -0.00000000000000    -0.00000000000000    -0.00000000000000     0.70201004301934     0.00000000000000
    5     0.00000000000000     0.00000000000000     0.00000000000000     0.00000000000000     0.70201004301934
    6     0.00564061600143     0.00719038934965     0.03941241270109    -0.00000000000000     0.00000000000000
    7     0.00719038934965    -0.08077201235159    -0.09383429169227     0.00000000000000     0.00000000000000
    8    -0.03941241270109     0.09383429169227     0.02307695752344    -0.00000000000000     0.00000000000000
    9    -0.00000000000000     0.00000000000000    -0.00000000000000    -0.00167100526497     0.00000000000000
   10     0.00000000000000     0.00000000000000     0.00000000000000     0.00000000000000    -0.00167100526497

                 6                   7                   8                   9                  10

    1     0.00564061600143     0.00719038934965    -0.03941241270109    -0.00000000000000     0.00000000000000
    2     0.00719038934965    -0.08077201235159     0.09383429169227     0.00000000000000     0.00000000000000
    3     0.03941241270109    -0.09383429169227     0.02307695752344    -0.00000000000000     0.00000000000000
    4    -0.00000000000000     0.00000000000000    -0.00000000000000    -0.00167100526497     0.00000000000000
    5     0.00000000000000     0.00000000000000     0.00000000000000     0.00000000000000    -0.00167100526497
    6    -0.38627866166654    -0.35435878726536     0.02976458484129     0.00000000000000     0.00000000000000
    7    -0.35435878726536    -0.31087764907513    -0.00226648200293    -0.00000000000000     0.00000000000000
    8     0.02976458484129    -0.00226648200293     0.70050104190062     0.00000000000000     0.00000000000000
    9     0.00000000000000    -0.00000000000000     0.00000000000000     0.70201004301934     0.00000000000000
   10     0.00000000000000     0.00000000000000     0.00000000000000     0.00000000000000     0.70201004301934



  ## C (Symmetry 0) ##
  Irrep: 1 Size: 10 x 10

                 1                   2                   3                   4                   5

    1     0.34202564218296     0.41868749791743     0.03964097586291    -0.04536433791238     0.02492536675729
    2     0.48022693630883     0.31750068340611    -0.02034827838478     0.15445654831553    -0.08451339489402
    3     0.51126191978266    -0.48766764296733    -0.06902985027982     0.03459753760850    -0.02159169555957
    4    -0.43638894672806     0.54321052822419    -0.12036213218180     0.00010016606660     0.00003446574335
    5     0.02879718660920    -0.06898299375756     0.70304191146691     0.00000000000001     0.00000000000000
    6     0.03963042132997     0.00928979318991    -0.00207633409298     0.30399756847115    -0.93596573455218
    7    -0.11126276347425    -0.03830110607261     0.00574964961770    -0.91330427359826     0.44823157749464
    8     0.01710076975294     0.00845519324373    -0.00106458199982     0.23830062854182    -0.67350220683651
    9     0.00006537429076    -0.00008137695348     0.00001803113733    -0.66863232922398    -0.23006703801262
   10    -0.07292948104677     0.09581531328275     0.69667537433023    -0.00000000000000    -0.00000000000000

                 6                   7                   8                   9                  10

    1     0.92206580994938     0.88394045083987    -0.03637736172139    -0.03426214015828    -0.00734039546555
    2    -0.98788762376502    -0.86008092604176     0.01208788590526     0.13148983651548    -0.01776638872514
    3     0.49899635272270    -0.49750591212701     0.06896083768322     0.03325488104054    -0.01768959990893
    4     0.43638894672807    -0.54321052822419    -0.12036213218180    -0.00010016606660    -0.00003446574335
    5     0.02877533715030    -0.06895428916847    -0.70325067727147     0.00000000000000     0.00000000000000
    6    -0.02333164301634    -0.04121237543060     0.00172207606914     0.30231312719238    -0.93107032708587
    7     0.11711187098610     0.14487926480482    -0.00446469259574    -0.90818829008009     0.43336325039505
    8    -0.03796190641302    -0.03571083887896     0.00075477013059    -0.22300566469562     0.66716920788452
    9    -0.00006537429076     0.00008137695347     0.00001803113732     0.66863232922399     0.23006703801259
   10     0.07292085625704    -0.09579464925790     0.69688604735777     0.00000000000000     0.00000000000000




 In Bisection function HOMO = -0.736  LUMO =  0.744

 0.00412 = (-0.73579 + 0.74403)/2.0
 sum -  nocc_ = 2.00000000
 On Iteration in Bisection 0
 a: 2.00000  b:-0.50000

 -0.36583 = (-0.73579 + 0.00412)/2.0
 sum -  nocc_ = 1.00000000
 On Iteration in Bisection 1
 a: 1.00000  b:-0.50000

 -0.55081 = (-0.73579 + -0.36583)/2.0
 sum -  nocc_ = 1.00000000
 On Iteration in Bisection 2
 a: 1.00000  b:-0.50000

 -0.64330 = (-0.73579 + -0.55081)/2.0
 sum -  nocc_ = 1.00000000
 On Iteration in Bisection 3
 a: 1.00000  b:-0.50000

 -0.68954 = (-0.73579 + -0.64330)/2.0
 sum -  nocc_ = 0.00000000
 ef = -0.68954 sum = 1.00000 

 Iter: 0  T:      100.000  val:-0.689545  sumni 0.00000
 ne = 1.0000

Nuc Replusion =       0.211670883436
 1st iteration =      -0.156026801533
 In Bisection function HOMO = -0.247  LUMO =  1.924

 0.83871 = (-0.24658 + 1.92399)/2.0
 sum -  nocc_ = 2.00000000
 On Iteration in Bisection 0
 a: 2.00000  b:-0.50000

 0.29606 = (-0.24658 + 0.83871)/2.0
 sum -  nocc_ = 1.00000000
 On Iteration in Bisection 1
 a: 1.00000  b:-0.50000

 0.02474 = (-0.24658 + 0.29606)/2.0
 sum -  nocc_ = 0.00000000
 ef = 0.02474 sum = 1.00000 

 Iter: 0  T:      100.000  val:0.024740  sumni 0.00000
 ne = 1.0000

 iter:1  failiter:1  energy:     -0.955246860740  total:     -0.743575977304  error:     -0.089916741623
 In Bisection function HOMO = -0.304  LUMO =  1.894

 0.79471 = (-0.30408 + 1.89350)/2.0
 sum -  nocc_ = 2.00000000
 On Iteration in Bisection 0
 a: 2.00000  b:-0.50000

 0.24531 = (-0.30408 + 0.79471)/2.0
 sum -  nocc_ = 1.00000000
 On Iteration in Bisection 1
 a: 1.00000  b:-0.50000

 -0.02939 = (-0.30408 + 0.24531)/2.0
 sum -  nocc_ = 1.00000000
 On Iteration in Bisection 2
 a: 1.00000  b:-0.50000

 -0.16674 = (-0.30408 + -0.02939)/2.0
 sum -  nocc_ = 0.00000000
 ef = -0.16674 sum = 1.00000 

 Iter: 1  T:      100.000  val:-0.166735  sumni 0.00000
 ne = 1.0000

 iter:2  failiter:2  energy:     -1.021925952217  total:     -0.810255068781  error:     -0.066679091477
 In Bisection function HOMO = -0.312  LUMO =  1.861

 0.77439 = (-0.31210 + 1.86088)/2.0
 sum -  nocc_ = 2.00000000
 On Iteration in Bisection 0
 a: 2.00000  b:-0.50000

 0.23115 = (-0.31210 + 0.77439)/2.0
 sum -  nocc_ = 1.00000000
 On Iteration in Bisection 1
 a: 1.00000  b:-0.50000

 -0.04048 = (-0.31210 + 0.23115)/2.0
 sum -  nocc_ = 1.00000000
 On Iteration in Bisection 2
 a: 1.00000  b:-0.50000

 -0.17629 = (-0.31210 + -0.04048)/2.0
 sum -  nocc_ = 0.00000000
 ef = -0.17629 sum = 1.00000 

 Iter: 2  T:      100.000  val:-0.176289  sumni 0.00000
 ne = 1.0000

 iter:3  failiter:3  energy:     -1.035794214783  total:     -0.824123331347  error:     -0.013868262566
 In Bisection function HOMO = -0.323  LUMO =  1.793

 0.73521 = (-0.32296 + 1.79339)/2.0
 sum -  nocc_ = 2.00000000
 On Iteration in Bisection 0
 a: 2.00000  b:-0.50000

 0.20612 = (-0.32296 + 0.73521)/2.0
 sum -  nocc_ = 1.00000000
 On Iteration in Bisection 1
 a: 1.00000  b:-0.50000

 -0.05842 = (-0.32296 + 0.20612)/2.0
 sum -  nocc_ = 1.00000000
 On Iteration in Bisection 2
 a: 1.00000  b:-0.50000

 -0.19069 = (-0.32296 + -0.05842)/2.0
 sum -  nocc_ = 0.00000000
 ef = -0.19069 sum = 1.00000 

 Iter: 3  T:      100.000  val:-0.190692  sumni 0.00000
 ne = 1.0000

 iter:4  failiter:4  energy:     -1.050021559182  total:     -0.838350675746  error:     -0.014227344399
 In Bisection function HOMO = -0.334  LUMO =  1.712

 0.68910 = (-0.33374 + 1.71195)/2.0
 sum -  nocc_ = 2.00000000
 On Iteration in Bisection 0
 a: 2.00000  b:-0.50000

 0.17768 = (-0.33374 + 0.68910)/2.0
 sum -  nocc_ = 1.00000000
 On Iteration in Bisection 1
 a: 1.00000  b:-0.50000

 -0.07803 = (-0.33374 + 0.17768)/2.0
 sum -  nocc_ = 1.00000000
 On Iteration in Bisection 2
 a: 1.00000  b:-0.50000

 -0.20589 = (-0.33374 + -0.07803)/2.0
 sum -  nocc_ = 0.00000000
 ef = -0.20589 sum = 1.00000 

 Iter: 4  T:      100.000  val:-0.205885  sumni 0.00000
 ne = 1.0000

 iter:5  failiter:5  energy:     -1.061884341303  total:     -0.850213457867  error:     -0.011862782120
 In Bisection function HOMO = -0.342  LUMO =  1.637

 0.64771 = (-0.34176 + 1.63718)/2.0
 sum -  nocc_ = 2.00000000
 On Iteration in Bisection 0
 a: 2.00000  b:-0.50000

 0.15298 = (-0.34176 + 0.64771)/2.0
 sum -  nocc_ = 1.00000000
 On Iteration in Bisection 1
 a: 1.00000  b:-0.50000

 -0.09439 = (-0.34176 + 0.15298)/2.0
 sum -  nocc_ = 0.00000000
 ef = -0.09439 sum = 1.00000 

 Iter: 5  T:      100.000  val:-0.094391  sumni 0.00000
 ne = 1.0000

 iter:6  failiter:6  energy:     -1.069887354840  total:     -0.858216471404  error:     -0.008003013537
 In Bisection function HOMO = -0.346  LUMO =  1.583

 0.61843 = (-0.34619 + 1.58304)/2.0
 sum -  nocc_ = 2.00000000
 On Iteration in Bisection 0
 a: 2.00000  b:-0.50000

 0.13612 = (-0.34619 + 0.61843)/2.0
 sum -  nocc_ = 1.00000000
 On Iteration in Bisection 1
 a: 1.00000  b:-0.50000

 -0.10504 = (-0.34619 + 0.13612)/2.0
 sum -  nocc_ = 0.00000000
 ef = -0.10504 sum = 1.00000 

 Iter: 6  T:      100.000  val:-0.105037  sumni 0.00000
 ne = 1.0000

 iter:7  failiter:7  energy:     -1.074102582368  total:     -0.862431698932  error:     -0.004215227528
 In Bisection function HOMO = -0.348  LUMO =  1.551

 0.60129 = (-0.34816 + 1.55073)/2.0
 sum -  nocc_ = 1.00001965
 On Iteration in Bisection 0
 a: 1.00002  b:-0.50000

 0.12656 = (-0.34816 + 0.60129)/2.0
 sum -  nocc_ = 1.00000000
 On Iteration in Bisection 1
 a: 1.00000  b:-0.50000

 -0.11080 = (-0.34816 + 0.12656)/2.0
 sum -  nocc_ = 0.00000000
 ef = -0.11080 sum = 1.00000 

 Iter: 7  T:      100.000  val:-0.110796  sumni 0.00000
 ne = 1.0000

 iter:8  failiter:8  energy:     -1.075925804247  total:     -0.864254920811  error:     -0.001823221879
 In Bisection function HOMO = -0.349  LUMO =  1.534

 0.59279 = (-0.34892 + 1.53449)/2.0
 sum -  nocc_ = 1.00000000
 On Iteration in Bisection 0
 a: 1.00000  b:-0.50000

 0.12193 = (-0.34892 + 0.59279)/2.0
 sum -  nocc_ = 1.00000000
 On Iteration in Bisection 1
 a: 1.00000  b:-0.50000

 -0.11349 = (-0.34892 + 0.12193)/2.0
 sum -  nocc_ = 0.00000000
 ef = -0.11349 sum = 1.00000 

 Iter: 8  T:      100.000  val:-0.113492  sumni 0.00000
 ne = 1.0000

 iter:9  failiter:9  energy:     -1.076622824327  total:     -0.864951940891  error:     -0.000697020080
 In Bisection function HOMO = -0.349  LUMO =  1.528

 0.58920 = (-0.34919 + 1.52760)/2.0
 sum -  nocc_ = 1.00000000
 On Iteration in Bisection 0
 a: 1.00000  b:-0.50000

 0.12001 = (-0.34919 + 0.58920)/2.0
 sum -  nocc_ = 1.00000000
 On Iteration in Bisection 1
 a: 1.00000  b:-0.50000

 -0.11459 = (-0.34919 + 0.12001)/2.0
 sum -  nocc_ = 0.00000000
 ef = -0.11459 sum = 1.00000 

 Iter: 9  T:      100.000  val:-0.114594  sumni 0.00000
 ne = 1.0000

 iter:10  failiter:10  energy:     -1.076871778543  total:     -0.865200895107  error:     -0.000248954217
 In Bisection function HOMO = -0.349  LUMO =  1.525

 0.58787 = (-0.34929 + 1.52503)/2.0
 sum -  nocc_ = 1.00000000
 On Iteration in Bisection 0
 a: 1.00000  b:-0.50000

 0.11929 = (-0.34929 + 0.58787)/2.0
 sum -  nocc_ = 1.00000000
 On Iteration in Bisection 1
 a: 1.00000  b:-0.50000

 -0.11500 = (-0.34929 + 0.11929)/2.0
 sum -  nocc_ = 0.00000000
 ef = -0.11500 sum = 1.00000 

 Iter: 10  T:      100.000  val:-0.114997  sumni 0.00000
 ne = 1.0000

 iter:11  failiter:11  energy:     -1.076957535432  total:     -0.865286651996  error:     -0.000085756889
 In Bisection function HOMO = -0.349  LUMO =  1.524

 0.58741 = (-0.34932 + 1.52414)/2.0
 sum -  nocc_ = 1.00000000
 On Iteration in Bisection 0
 a: 1.00000  b:-0.50000

 0.11905 = (-0.34932 + 0.58741)/2.0
 sum -  nocc_ = 1.00000000
 On Iteration in Bisection 1
 a: 1.00000  b:-0.50000

 -0.11514 = (-0.34932 + 0.11905)/2.0
 sum -  nocc_ = 0.00000000
 ef = -0.11514 sum = 1.00000 

 Iter: 11  T:      100.000  val:-0.115137  sumni 0.00000
 ne = 1.0000

 iter:12  failiter:12  energy:     -1.076986507206  total:     -0.865315623770  error:     -0.000028971773
 In Bisection function HOMO = -0.349  LUMO =  1.524

 0.58726 = (-0.34933 + 1.52385)/2.0
 sum -  nocc_ = 1.00000000
 On Iteration in Bisection 0
 a: 1.00000  b:-0.50000

 0.11896 = (-0.34933 + 0.58726)/2.0
 sum -  nocc_ = 1.00000000
 On Iteration in Bisection 1
 a: 1.00000  b:-0.50000

 -0.11518 = (-0.34933 + 0.11896)/2.0
 sum -  nocc_ = 0.00000000
 ef = -0.11518 sum = 1.00000 

 Iter: 12  T:      100.000  val:-0.115183  sumni 0.00000
 ne = 1.0000

 iter:13  failiter:13  energy:     -1.076996191668  total:     -0.865325308232  error:     -0.000009684462
 In Bisection function HOMO = -0.349  LUMO =  1.524

 0.58721 = (-0.34933 + 1.52375)/2.0
 sum -  nocc_ = 1.00000000
 On Iteration in Bisection 0
 a: 1.00000  b:-0.50000

 0.11894 = (-0.34933 + 0.58721)/2.0
 sum -  nocc_ = 1.00000000
 On Iteration in Bisection 1
 a: 1.00000  b:-0.50000

 -0.11520 = (-0.34933 + 0.11894)/2.0
 sum -  nocc_ = 0.00000000
 ef = -0.11520 sum = 1.00000 

 Iter: 13  T:      100.000  val:-0.115199  sumni 0.00000
 ne = 1.0000

 iter:14  failiter:14  energy:     -1.076999410070  total:     -0.865328526634  error:     -0.000003218402
 In Bisection function HOMO = -0.349  LUMO =  1.524

 0.58719 = (-0.34934 + 1.52371)/2.0
 sum -  nocc_ = 1.00000000
 On Iteration in Bisection 0
 a: 1.00000  b:-0.50000

 0.11893 = (-0.34934 + 0.58719)/2.0
 sum -  nocc_ = 1.00000000
 On Iteration in Bisection 1
 a: 1.00000  b:-0.50000

 -0.11520 = (-0.34934 + 0.11893)/2.0
 sum -  nocc_ = 0.00000000
 ef = -0.11520 sum = 1.00000 

 Iter: 14  T:      100.000  val:-0.115204  sumni 0.00000
 ne = 1.0000

 iter:15  failiter:15  energy:     -1.077000476184  total:     -0.865329592748  error:     -0.000001066114
 In Bisection function HOMO = -0.349  LUMO =  1.524

 0.58718 = (-0.34934 + 1.52370)/2.0
 sum -  nocc_ = 1.00000000
 On Iteration in Bisection 0
 a: 1.00000  b:-0.50000

 0.11892 = (-0.34934 + 0.58718)/2.0
 sum -  nocc_ = 1.00000000
 On Iteration in Bisection 1
 a: 1.00000  b:-0.50000

 -0.11521 = (-0.34934 + 0.11892)/2.0
 sum -  nocc_ = 0.00000000
 ef = -0.11521 sum = 1.00000 

 Iter: 15  T:      100.000  val:-0.115206  sumni 0.00000
 ne = 1.0000

 iter:16  failiter:16  energy:     -1.077000828711  total:     -0.865329945275  error:     -0.000000352527
 In Bisection function HOMO = -0.349  LUMO =  1.524

 0.58718 = (-0.34934 + 1.52370)/2.0
 sum -  nocc_ = 1.00000000
 On Iteration in Bisection 0
 a: 1.00000  b:-0.50000

 0.11892 = (-0.34934 + 0.58718)/2.0
 sum -  nocc_ = 1.00000000
 On Iteration in Bisection 1
 a: 1.00000  b:-0.50000

 -0.11521 = (-0.34934 + 0.11892)/2.0
 sum -  nocc_ = 0.00000000
 ef = -0.11521 sum = 1.00000 

 Iter: 16  T:      100.000  val:-0.115206  sumni 0.00000
 ne = 1.0000

 iter:17  failiter:17  energy:     -1.077000945164  total:     -0.865330061728  error:     -0.000000116454
 In Bisection function HOMO = -0.349  LUMO =  1.524

 0.58718 = (-0.34934 + 1.52370)/2.0
 sum -  nocc_ = 1.00000000
 On Iteration in Bisection 0
 a: 1.00000  b:-0.50000

 0.11892 = (-0.34934 + 0.58718)/2.0
 sum -  nocc_ = 1.00000000
 On Iteration in Bisection 1
 a: 1.00000  b:-0.50000

 -0.11521 = (-0.34934 + 0.11892)/2.0
 sum -  nocc_ = 0.00000000
 ef = -0.11521 sum = 1.00000 

 Iter: 17  T:      100.000  val:-0.115206  sumni 0.00000
 ne = 1.0000

 iter:18  failiter:18  energy:     -1.077000983613  total:     -0.865330100177  error:     -0.000000038448
 In Bisection function HOMO = -0.349  LUMO =  1.524

 0.58718 = (-0.34934 + 1.52370)/2.0
 sum -  nocc_ = 1.00000000
 On Iteration in Bisection 0
 a: 1.00000  b:-0.50000

 0.11892 = (-0.34934 + 0.58718)/2.0
 sum -  nocc_ = 1.00000000
 On Iteration in Bisection 1
 a: 1.00000  b:-0.50000

 -0.11521 = (-0.34934 + 0.11892)/2.0
 sum -  nocc_ = 0.00000000
 ef = -0.11521 sum = 1.00000 

 Iter: 18  T:      100.000  val:-0.115206  sumni 0.00000
 ne = 1.0000

 iter:19  failiter:19  energy:     -1.077000996303  total:     -0.865330112867  error:     -0.000000012690
 In Bisection function HOMO = -0.349  LUMO =  1.524

 0.58718 = (-0.34934 + 1.52370)/2.0
 sum -  nocc_ = 1.00000000
 On Iteration in Bisection 0
 a: 1.00000  b:-0.50000

 0.11892 = (-0.34934 + 0.58718)/2.0
 sum -  nocc_ = 1.00000000
 On Iteration in Bisection 1
 a: 1.00000  b:-0.50000

 -0.11521 = (-0.34934 + 0.11892)/2.0
 sum -  nocc_ = 0.00000000
 ef = -0.11521 sum = 1.00000 

 Iter: 19  T:      100.000  val:-0.115206  sumni 0.00000
 ne = 1.0000

 iter:20  failiter:20  energy:     -1.077001000491  total:     -0.865330117055  error:     -0.000000004188
 In Bisection function HOMO = -0.349  LUMO =  1.524

 0.58718 = (-0.34934 + 1.52370)/2.0
 sum -  nocc_ = 1.00000000
 On Iteration in Bisection 0
 a: 1.00000  b:-0.50000

 0.11892 = (-0.34934 + 0.58718)/2.0
 sum -  nocc_ = 1.00000000
 On Iteration in Bisection 1
 a: 1.00000  b:-0.50000

 -0.11521 = (-0.34934 + 0.11892)/2.0
 sum -  nocc_ = 0.00000000
 ef = -0.11521 sum = 1.00000 

 Iter: 20  T:      100.000  val:-0.115206  sumni 0.00000
 ne = 1.0000

 iter:21  failiter:21  energy:     -1.077001001873  total:     -0.865330118437  error:     -0.000000001382
 In Bisection function HOMO = -0.349  LUMO =  1.524

 0.58718 = (-0.34934 + 1.52370)/2.0
 sum -  nocc_ = 1.00000000
 On Iteration in Bisection 0
 a: 1.00000  b:-0.50000

 0.11892 = (-0.34934 + 0.58718)/2.0
 sum -  nocc_ = 1.00000000
 On Iteration in Bisection 1
 a: 1.00000  b:-0.50000

 -0.11521 = (-0.34934 + 0.11892)/2.0
 sum -  nocc_ = 0.00000000
 ef = -0.11521 sum = 1.00000 

 Iter: 21  T:      100.000  val:-0.115206  sumni 0.00000
 ne = 1.0000

 iter:22  failiter:22  energy:     -1.077001002329  total:     -0.865330118893  error:     -0.000000000456
 In Bisection function HOMO = -0.349  LUMO =  1.524

 0.58718 = (-0.34934 + 1.52370)/2.0
 sum -  nocc_ = 1.00000000
 On Iteration in Bisection 0
 a: 1.00000  b:-0.50000

 0.11892 = (-0.34934 + 0.58718)/2.0
 sum -  nocc_ = 1.00000000
 On Iteration in Bisection 1
 a: 1.00000  b:-0.50000

 -0.11521 = (-0.34934 + 0.11892)/2.0
 sum -  nocc_ = 0.00000000
 ef = -0.11521 sum = 1.00000 

 Iter: 22  T:      100.000  val:-0.115206  sumni 0.00000
 ne = 1.0000

 iter:23  failiter:23  energy:     -1.077001002479  total:     -0.865330119043  error:     -0.000000000150
 In Bisection function HOMO = -0.349  LUMO =  1.524

 0.58718 = (-0.34934 + 1.52370)/2.0
 sum -  nocc_ = 1.00000000
 On Iteration in Bisection 0
 a: 1.00000  b:-0.50000

 0.11892 = (-0.34934 + 0.58718)/2.0
 sum -  nocc_ = 1.00000000
 On Iteration in Bisection 1
 a: 1.00000  b:-0.50000

 -0.11521 = (-0.34934 + 0.11892)/2.0
 sum -  nocc_ = 0.00000000
 ef = -0.11521 sum = 1.00000 

 Iter: 23  T:      100.000  val:-0.115206  sumni 0.00000
 ne = 1.0000

 iter:24  failiter:24  energy:     -1.077001002529  total:     -0.865330119093  error:     -0.000000000050
 In Bisection function HOMO = -0.349  LUMO =  1.524

 0.58718 = (-0.34934 + 1.52370)/2.0
 sum -  nocc_ = 1.00000000
 On Iteration in Bisection 0
 a: 1.00000  b:-0.50000

 0.11892 = (-0.34934 + 0.58718)/2.0
 sum -  nocc_ = 1.00000000
 On Iteration in Bisection 1
 a: 1.00000  b:-0.50000

 -0.11521 = (-0.34934 + 0.11892)/2.0
 sum -  nocc_ = 0.00000000
 ef = -0.11521 sum = 1.00000 

 Iter: 24  T:      100.000  val:-0.115206  sumni 0.00000
 ne = 1.0000

 iter:25  failiter:25  energy:     -1.077001002545  total:     -0.865330119109  error:     -0.000000000016
 In Bisection function HOMO = -0.349  LUMO =  1.524

 0.58718 = (-0.34934 + 1.52370)/2.0
 sum -  nocc_ = 1.00000000
 On Iteration in Bisection 0
 a: 1.00000  b:-0.50000

 0.11892 = (-0.34934 + 0.58718)/2.0
 sum -  nocc_ = 1.00000000
 On Iteration in Bisection 1
 a: 1.00000  b:-0.50000

 -0.11521 = (-0.34934 + 0.11892)/2.0
 sum -  nocc_ = 0.00000000
 ef = -0.11521 sum = 1.00000 

 Iter: 25  T:      100.000  val:-0.115206  sumni 0.00000
 ne = 1.0000

 iter:26  failiter:26  energy:     -1.077001002551  total:     -0.865330119115  error:     -0.000000000005
 In Bisection function HOMO = -0.349  LUMO =  1.524

 0.58718 = (-0.34934 + 1.52370)/2.0
 sum -  nocc_ = 1.00000000
 On Iteration in Bisection 0
 a: 1.00000  b:-0.50000

 0.11892 = (-0.34934 + 0.58718)/2.0
 sum -  nocc_ = 1.00000000
 On Iteration in Bisection 1
 a: 1.00000  b:-0.50000

 -0.11521 = (-0.34934 + 0.11892)/2.0
 sum -  nocc_ = 0.00000000
 ef = -0.11521 sum = 1.00000 

 Iter: 26  T:      100.000  val:-0.115206  sumni 0.00000
 ne = 1.0000

 iter:27  failiter:27  energy:     -1.077001002552  total:     -0.865330119116  error:     -0.000000000002
 In Bisection function HOMO = -0.349  LUMO =  1.524

 0.58718 = (-0.34934 + 1.52370)/2.0
 sum -  nocc_ = 1.00000000
 On Iteration in Bisection 0
 a: 1.00000  b:-0.50000

 0.11892 = (-0.34934 + 0.58718)/2.0
 sum -  nocc_ = 1.00000000
 On Iteration in Bisection 1
 a: 1.00000  b:-0.50000

 -0.11521 = (-0.34934 + 0.11892)/2.0
 sum -  nocc_ = 0.00000000
 ef = -0.11521 sum = 1.00000 

 Iter: 27  T:      100.000  val:-0.115206  sumni 0.00000
 ne = 1.0000

 iter:28  failiter:28  energy:     -1.077001002553  total:     -0.865330119117  error:     -0.000000000001
 FTHFEnergy =    -0.865330
 FD_dis[0] = 1.00000000 with -0.349336 eig value
 FD_dis[1] = 0.00000000 with -0.084657 eig value
 FD_dis[2] = 0.00000000 with 0.624634 eig value
 FD_dis[3] = 0.00000000 with 0.667771 eig value
 FD_dis[4] = 0.00000000 with 1.453187 eig value
 FD_dis[5] = 0.00000000 with 1.463173 eig value
 FD_dis[6] = 0.00000000 with 1.463173 eig value
 FD_dis[7] = 0.00000000 with 1.470798 eig value
 FD_dis[8] = 0.00000000 with 1.470798 eig value
 FD_dis[9] = 0.00000000 with 1.523698 eig value
*** PSI4 exiting successfully. Buy a developer a beer!
