    -----------------------------------------------------------------------
          PSI4: An Open-Source Ab Initio Electronic Structure Package
                              PSI 4.0 Driver

               Git: Rev {master} 556e8139d3cfa1f96ccffe2cdf22cc56a185d2b2

    J. M. Turney, A. C. Simmonett, R. M. Parrish, E. G. Hohenstein,
    F. A. Evangelista, J. T. Fermann, B. J. Mintz, L. A. Burns, J. J. Wilke,
    M. L. Abrams, N. J. Russ, M. L. Leininger, C. L. Janssen, E. T. Seidl,
    W. D. Allen, H. F. Schaefer, R. A. King, E. F. Valeev, C. D. Sherrill,
    and T. D. Crawford, WIREs Comput. Mol. Sci. 2, 556-565 (2012)
    (doi: 10.1002/wcms.93)

                         Additional Contributions by
    A. E. DePrince, M. Saitow, U. Bozkaya, A. Yu. Sokolov
    -----------------------------------------------------------------------

    Process ID:  14558
    PSI4DATADIR: /Users/kevinhannon/Programs/psi4cmake/psi4/lib
    Memory level set to 256.000 MB

  ==> Input File <==

--------------------------------------------------------------------------

# PYTHONPATH must include directory above plugin directory.
#     Define either externally or here, then import plugin.
sys.path.insert(0, '/Users/kevinhannon/Programs/Quantum_Programs/Quantum-Programs/GS/')
import scf

molecule {
0 1
H
H 1 0.70000
symmetry c1
units angstrom
}


set {
  basis cc-pvdz
  reference rhf
  scf_type  pk
}

set scf {
  DO_FTHF true
  MAX_ITER 130
  MAX_TEMP 20000
  TEMP_INCREMENT 0
  bisect  true
  bisect_iter  40
}
energy('rhf')
energy('scf')


--------------------------------------------------------------------------

*** tstart() called on Kevins-MacBook-Pro.local
*** at Sun Apr 12 15:45:55 2015

/Users/kevinhannon/Programs/Quantum_Programs/Quantum-Programs/GS/scf/scf.so loaded.

*** tstart() called on Kevins-MacBook-Pro.local
*** at Sun Apr 12 15:45:55 2015


         ---------------------------------------------------------
                                   SCF
            by Justin Turney, Rob Parrish, and Andy Simmonett
                              RHF Reference
                        1 Threads,    256 MiB Core
         ---------------------------------------------------------

  ==> Geometry <==

    Molecular point group: c1
    Full point group: D_inf_h

    Geometry (in Angstrom), charge = 0, multiplicity = 1:

       Center              X                  Y                   Z       
    ------------   -----------------  -----------------  -----------------
           H          0.000000000000     0.000000000000    -0.350000000000
           H          0.000000000000     0.000000000000     0.350000000000

  Running in c1 symmetry.

  Rotational constants: A = ************  B =     68.27242  C =     68.27242 [cm^-1]
  Rotational constants: A = ************  B = 2046755.52137  C = 2046755.52137 [MHz]
  Nuclear repulsion =    0.755967440842857

  Charge       = 0
  Multiplicity = 1
  Electrons    = 2
  Nalpha       = 1
  Nbeta        = 1

  ==> Algorithm <==

  SCF Algorithm Type is PK.
  DIIS enabled.
  MOM disabled.
  Fractional occupation disabled.
  Guess Type is CORE.
  Energy threshold   = 1.00e-06
  Density threshold  = 1.00e-06
  Integral threshold = 0.00e+00

  ==> Primary Basis <==

  Basis Set: CC-PVDZ
    Number of shells: 6
    Number of basis function: 10
    Number of Cartesian functions: 10
    Spherical Harmonics?: true
    Max angular momentum: 1

  ==> Pre-Iterations <==

   -------------------------------------------------------
    Irrep   Nso     Nmo     Nalpha   Nbeta   Ndocc  Nsocc
   -------------------------------------------------------
     A         10      10       0       0       0       0
   -------------------------------------------------------
    Total      10      10       1       1       1       0
   -------------------------------------------------------

  Starting with a DF guess...

 OEINTS: Overlap, kinetic, potential, dipole, and quadrupole integrals
         stored in file 35.

  ==> Integral Setup <==

  ==> DFJK: Density-Fitted J/K Matrices <==

    J tasked:                  Yes
    K tasked:                  Yes
    wK tasked:                  No
    OpenMP threads:              1
    Integrals threads:           1
    Memory (MB):               183
    Algorithm:                Core
    Integral Cache:           NONE
    Schwarz Cutoff:          1E-12
    Fitting Condition:       1E-12

   => Auxiliary Basis Set <=

  Basis Set: 
    Number of shells: 18
    Number of basis function: 46
    Number of Cartesian functions: 50
    Spherical Harmonics?: true
    Max angular momentum: 2

  Minimum eigenvalue in the overlap matrix is 3.4676186799E-02.
  Using Symmetric Orthogonalization.
  SCF Guess: Core (One-Electron) Hamiltonian.

  ==> Iterations <==

                           Total Energy        Delta E     RMS |[F,P]|

   @DF-RHF iter   1:    -1.07306373371823   -1.07306e+00   2.26460e-02 
   @DF-RHF iter   2:    -1.12496335171238   -5.18996e-02   4.21957e-03 DIIS
   @DF-RHF iter   3:    -1.12692294409249   -1.95959e-03   2.27682e-04 DIIS
   @DF-RHF iter   4:    -1.12692576745881   -2.82337e-06   1.68864e-05 DIIS
   @DF-RHF iter   5:    -1.12692579953973   -3.20809e-08   4.10332e-08 DIIS

  DF guess converged.

  ==> Integral Setup <==

 MINTS: Wrapper to libmints.
   by Justin Turney

   Calculation information:
      Number of atoms:                   2
      Number of AO shells:               6
      Number of SO shells:               6
      Number of primitives:             10
      Number of atomic orbitals:        10
      Number of basis functions:        10

      Number of irreps:                  1
      Integral cutoff                 0.00e+00
      Number of functions per irrep: [  10 ]

 OEINTS: Overlap, kinetic, potential, dipole, and quadrupole integrals
         stored in file 35.

      Computing two-electron integrals...done
      Computed 512 non-zero two-electron integrals.
        Stored in file 33.

	Batch   1 pq = [       0,      55] index = [             0,1540]
  ==> DiskJK: Disk-Based J/K Matrices <==

    J tasked:                  Yes
    K tasked:                  Yes
    wK tasked:                  No
    Memory (MB):               183
    Schwarz Cutoff:          1E-12

   @RHF iter   6:    -1.12692469254230    1.10700e-06   2.36665e-07 DIIS
   @RHF iter   7:    -1.12692469254715   -4.84945e-12   3.65921e-08 DIIS

  ==> Post-Iterations <==

    Orbital Energies (a.u.)
    -----------------------

    Doubly Occupied:                                                      

       1A     -0.604819  

    Virtual:                                                              

       2A      0.204983     3A      0.469676     4A      0.967587  
       5A      1.297822     6A      1.297822     7A      1.994580  
       8A      2.070702     9A      2.070702    10A      3.883238  

    Final Occupation by Irrep:
              A 
    DOCC [     1 ]

  Energy converged.

  @RHF Final Energy:    -1.12692469254715

   => Energetics <=

    Nuclear Repulsion Energy =              0.7559674408428572
    One-Electron Energy =                  -2.5561470501098240
    Two-Electron Energy =                   0.6732549167198203
    DFT Exchange-Correlation Energy =       0.0000000000000000
    Empirical Dispersion Energy =           0.0000000000000000
    PCM Polarization Energy =               0.0000000000000000
    EFP Energy =                            0.0000000000000000
    Total Energy =                         -1.1269246925471466

    Alert: EFP and PCM quantities not currently incorporated into SCF psivars.

Properties will be evaluated at   0.000000,   0.000000,   0.000000 Bohr
  ==> Properties <==


Properties computed using the SCF density matrix

  Nuclear Dipole Moment: (a.u.)
     X:     0.0000      Y:     0.0000      Z:     0.0000

  Electronic Dipole Moment: (a.u.)
     X:     0.0000      Y:     0.0000      Z:    -0.0000

  Dipole Moment: (a.u.)
     X:     0.0000      Y:     0.0000      Z:    -0.0000     Total:     0.0000

  Dipole Moment: (Debye)
     X:     0.0000      Y:     0.0000      Z:    -0.0000     Total:     0.0000


  Saving occupied orbitals to File 180.

*** tstop() called on Kevins-MacBook-Pro.local at Sun Apr 12 15:45:55 2015
Module time:
	user time   =       0.19 seconds =       0.00 minutes
	system time =       0.01 seconds =       0.00 minutes
	total time  =          0 seconds =       0.00 minutes
Total time:
	user time   =       0.21 seconds =       0.00 minutes
	system time =       0.02 seconds =       0.00 minutes
	total time  =          0 seconds =       0.00 minutes

*** tstart() called on Kevins-MacBook-Pro.local
*** at Sun Apr 12 15:45:55 2015


         ---------------------------------------------------------
                                   SCF
            by Justin Turney, Rob Parrish, and Andy Simmonett
                              RHF Reference
                        1 Threads,    256 MiB Core
         ---------------------------------------------------------

  ==> Geometry <==

    Molecular point group: c1
    Full point group: D_inf_h

    Geometry (in Angstrom), charge = 0, multiplicity = 1:

       Center              X                  Y                   Z       
    ------------   -----------------  -----------------  -----------------
           H          0.000000000000     0.000000000000    -0.350000000000
           H          0.000000000000     0.000000000000     0.350000000000

  Running in c1 symmetry.

  Rotational constants: A = ************  B =     68.27242  C =     68.27242 [cm^-1]
  Rotational constants: A = ************  B = 2046755.52137  C = 2046755.52137 [MHz]
  Nuclear repulsion =    0.755967440842857

  Charge       = 0
  Multiplicity = 1
  Electrons    = 2
  Nalpha       = 1
  Nbeta        = 1

  ==> Algorithm <==

  SCF Algorithm Type is PK.
  DIIS enabled.
  MOM disabled.
  Fractional occupation disabled.
  Guess Type is CORE.
  Energy threshold   = 1.00e-08
  Density threshold  = 1.00e-08
  Integral threshold = 0.00e+00

  ==> Primary Basis <==

  Basis Set: CC-PVDZ
    Number of shells: 6
    Number of basis function: 10
    Number of Cartesian functions: 10
    Spherical Harmonics?: true
    Max angular momentum: 1

  ==> Pre-Iterations <==

   -------------------------------------------------------
    Irrep   Nso     Nmo     Nalpha   Nbeta   Ndocc  Nsocc
   -------------------------------------------------------
     A         10      10       0       0       0       0
   -------------------------------------------------------
    Total      10      10       1       1       1       0
   -------------------------------------------------------

  Starting with a DF guess...

 OEINTS: Overlap, kinetic, potential, dipole, and quadrupole integrals
         stored in file 35.

  ==> Integral Setup <==

  ==> DFJK: Density-Fitted J/K Matrices <==

    J tasked:                  Yes
    K tasked:                  Yes
    wK tasked:                  No
    OpenMP threads:              1
    Integrals threads:           1
    Memory (MB):               183
    Algorithm:                Core
    Integral Cache:           NONE
    Schwarz Cutoff:          1E-12
    Fitting Condition:       1E-12

   => Auxiliary Basis Set <=

  Basis Set: 
    Number of shells: 18
    Number of basis function: 46
    Number of Cartesian functions: 50
    Spherical Harmonics?: true
    Max angular momentum: 2

  Minimum eigenvalue in the overlap matrix is 3.4676186799E-02.
  Using Symmetric Orthogonalization.
  SCF Guess: Core (One-Electron) Hamiltonian.

  ==> Iterations <==

                           Total Energy        Delta E     RMS |[F,P]|

   @DF-RHF iter   1:    -1.07306373371823   -1.07306e+00   2.26460e-02 
   @DF-RHF iter   2:    -1.12496335171238   -5.18996e-02   4.21957e-03 DIIS
   @DF-RHF iter   3:    -1.12692294409249   -1.95959e-03   2.27682e-04 DIIS
   @DF-RHF iter   4:    -1.12692576745881   -2.82337e-06   1.68864e-05 DIIS
   @DF-RHF iter   5:    -1.12692579953973   -3.20809e-08   4.10332e-08 DIIS
   @DF-RHF iter   6:    -1.12692579953992   -1.88072e-13   4.44561e-11 DIIS

  DF guess converged.

  ==> Integral Setup <==

 MINTS: Wrapper to libmints.
   by Justin Turney

   Calculation information:
      Number of atoms:                   2
      Number of AO shells:               6
      Number of SO shells:               6
      Number of primitives:             10
      Number of atomic orbitals:        10
      Number of basis functions:        10

      Number of irreps:                  1
      Integral cutoff                 0.00e+00
      Number of functions per irrep: [  10 ]

 OEINTS: Overlap, kinetic, potential, dipole, and quadrupole integrals
         stored in file 35.

      Computing two-electron integrals...done
      Computed 512 non-zero two-electron integrals.
        Stored in file 33.

	Batch   1 pq = [       0,      55] index = [             0,1540]
  ==> DiskJK: Disk-Based J/K Matrices <==

    J tasked:                  Yes
    K tasked:                  Yes
    wK tasked:                  No
    Memory (MB):               183
    Schwarz Cutoff:          1E-12

   @RHF iter   7:    -1.12692469254230    1.10700e-06   2.36626e-07 DIIS
   @RHF iter   8:    -1.12692469254715   -4.84923e-12   3.65848e-08 DIIS
   @RHF iter   9:    -1.12692469254728   -1.35447e-13   1.87084e-09 DIIS

  ==> Post-Iterations <==

    Orbital Energies (a.u.)
    -----------------------

    Doubly Occupied:                                                      

       1A     -0.604819  

    Virtual:                                                              

       2A      0.204983     3A      0.469676     4A      0.967587  
       5A      1.297822     6A      1.297822     7A      1.994580  
       8A      2.070702     9A      2.070702    10A      3.883238  

    Final Occupation by Irrep:
              A 
    DOCC [     1 ]

  Energy converged.

  @RHF Final Energy:    -1.12692469254728

   => Energetics <=

    Nuclear Repulsion Energy =              0.7559674408428572
    One-Electron Energy =                  -2.5561468727322798
    Two-Electron Energy =                   0.6732547393421392
    DFT Exchange-Correlation Energy =       0.0000000000000000
    Empirical Dispersion Energy =           0.0000000000000000
    PCM Polarization Energy =               0.0000000000000000
    EFP Energy =                            0.0000000000000000
    Total Energy =                         -1.1269246925472833

    Alert: EFP and PCM quantities not currently incorporated into SCF psivars.

Properties will be evaluated at   0.000000,   0.000000,   0.000000 Bohr
  ==> Properties <==


Properties computed using the SCF density matrix

  Nuclear Dipole Moment: (a.u.)
     X:     0.0000      Y:     0.0000      Z:     0.0000

  Electronic Dipole Moment: (a.u.)
     X:     0.0000      Y:    -0.0000      Z:    -0.0000

  Dipole Moment: (a.u.)
     X:     0.0000      Y:    -0.0000      Z:    -0.0000     Total:     0.0000

  Dipole Moment: (Debye)
     X:     0.0000      Y:    -0.0000      Z:    -0.0000     Total:     0.0000


  Saving occupied orbitals to File 180.

*** tstop() called on Kevins-MacBook-Pro.local at Sun Apr 12 15:45:55 2015
Module time:
	user time   =       0.20 seconds =       0.00 minutes
	system time =       0.01 seconds =       0.00 minutes
	total time  =          0 seconds =       0.00 minutes
Total time:
	user time   =       0.42 seconds =       0.01 minutes
	system time =       0.03 seconds =       0.00 minutes
	total time  =          0 seconds =       0.00 minutes
Reading options from the SCF block
Calling plugin scf.so.
    Molecular point group: c1
    Full point group: D_inf_h

    Geometry (in Angstrom), charge = 0, multiplicity = 1:

       Center              X                  Y                   Z       
    ------------   -----------------  -----------------  -----------------
           H          0.000000000000     0.000000000000    -0.350000000000
           H          0.000000000000     0.000000000000     0.350000000000


    Nuclear repulsion energy:       0.75596744

  ## Overlap (Symmetry 0) ##
  Irrep: 1 Size: 10 x 10

                 1                   2                   3                   4                   5

    1     1.00000000000000     0.68486025149275     0.00000000000000     0.00000000000000     0.00000000000000
    2     0.68486025149275     1.00000000000000     0.00000000000000     0.00000000000000     0.00000000000000
    3     0.00000000000000     0.00000000000000     1.00000000000000     0.00000000000000     0.00000000000000
    4     0.00000000000000     0.00000000000000     0.00000000000000     1.00000000000000     0.00000000000000
    5     0.00000000000000     0.00000000000000     0.00000000000000     0.00000000000000     1.00000000000000
    6     0.60313244965404     0.57702625863800     0.54526552033563     0.00000000000000     0.00000000000000
    7     0.57702625863800     0.89876010323076     0.15865749562586     0.00000000000000     0.00000000000000
    8    -0.54526552033563    -0.15865749562586    -0.14405346620309     0.00000000000000     0.00000000000000
    9     0.00000000000000     0.00000000000000     0.00000000000000     0.52937393940666     0.00000000000000
   10     0.00000000000000     0.00000000000000     0.00000000000000     0.00000000000000     0.52937393940666

                 6                   7                   8                   9                  10

    1     0.60313244965404     0.57702625863800    -0.54526552033563     0.00000000000000     0.00000000000000
    2     0.57702625863800     0.89876010323076    -0.15865749562586     0.00000000000000     0.00000000000000
    3     0.54526552033563     0.15865749562586    -0.14405346620309     0.00000000000000     0.00000000000000
    4     0.00000000000000     0.00000000000000     0.00000000000000     0.52937393940666     0.00000000000000
    5     0.00000000000000     0.00000000000000     0.00000000000000     0.00000000000000     0.52937393940666
    6     1.00000000000000     0.68486025149275    -0.00000000000000     0.00000000000000     0.00000000000000
    7     0.68486025149275     1.00000000000000    -0.00000000000000     0.00000000000000     0.00000000000000
    8    -0.00000000000000    -0.00000000000000     1.00000000000000     0.00000000000000     0.00000000000000
    9     0.00000000000000     0.00000000000000     0.00000000000000     1.00000000000000     0.00000000000000
   10     0.00000000000000     0.00000000000000     0.00000000000000     0.00000000000000     1.00000000000000



  ## Kinetic (Symmetry 0) ##
  Irrep: 1 Size: 10 x 10

                 1                   2                   3                   4                   5

    1     0.96945722711242     0.20123413106538    -0.00000000000000     0.00000000000000     0.00000000000000
    2     0.20123413106538     0.18300000000000     0.00000000000000     0.00000000000000     0.00000000000000
    3    -0.00000000000000     0.00000000000000     1.81750000000000     0.00000000000000     0.00000000000000
    4     0.00000000000000     0.00000000000000     0.00000000000000     1.81750000000000     0.00000000000000
    5     0.00000000000000     0.00000000000000     0.00000000000000     0.00000000000000     1.81750000000000
    6     0.30570443395901     0.15001432705420     0.68212871830861     0.00000000000000     0.00000000000000
    7     0.15001432705420     0.15276928872368     0.07681399131184     0.00000000000000     0.00000000000000
    8    -0.68212871830861    -0.07681399131184    -0.68478630308294     0.00000000000000     0.00000000000000
    9     0.00000000000000     0.00000000000000     0.00000000000000     0.71734627293246     0.00000000000000
   10     0.00000000000000     0.00000000000000     0.00000000000000     0.00000000000000     0.71734627293246

                 6                   7                   8                   9                  10

    1     0.30570443395901     0.15001432705420    -0.68212871830861     0.00000000000000     0.00000000000000
    2     0.15001432705420     0.15276928872368    -0.07681399131184     0.00000000000000     0.00000000000000
    3     0.68212871830861     0.07681399131184    -0.68478630308294     0.00000000000000     0.00000000000000
    4     0.00000000000000     0.00000000000000     0.00000000000000     0.71734627293246     0.00000000000000
    5     0.00000000000000     0.00000000000000     0.00000000000000     0.00000000000000     0.71734627293246
    6     0.96945722711242     0.20123413106538     0.00000000000000     0.00000000000000     0.00000000000000
    7     0.20123413106538     0.18300000000000    -0.00000000000000     0.00000000000000     0.00000000000000
    8     0.00000000000000    -0.00000000000000     1.81750000000000     0.00000000000000     0.00000000000000
    9     0.00000000000000     0.00000000000000     0.00000000000000     1.81750000000000     0.00000000000000
   10     0.00000000000000     0.00000000000000     0.00000000000000     0.00000000000000     1.81750000000000



  ## Potential (Symmetry 0) ##
  Irrep: 1 Size: 10 x 10

                 1                   2                   3                   4                   5

    1    -2.09418705323061    -1.09410397855922    -0.27750696663832     0.00000000000000     0.00000000000000
    2    -1.09410397855922    -1.04463873511813    -0.20367793411758     0.00000000000000     0.00000000000000
    3    -0.27750696663832    -0.20367793411758    -1.78596181998244     0.00000000000000     0.00000000000000
    4     0.00000000000000     0.00000000000000     0.00000000000000    -1.52085342860117     0.00000000000000
    5     0.00000000000000     0.00000000000000     0.00000000000000     0.00000000000000    -1.52085342860117
    6    -1.25884215889766    -0.95061741464479    -1.26119383583584     0.00000000000000     0.00000000000000
    7    -0.95061741464479    -0.96736437204214    -0.40746709731789     0.00000000000000     0.00000000000000
    8     1.26119383583584     0.40746709731789     0.42021301528564     0.00000000000000     0.00000000000000
    9     0.00000000000000     0.00000000000000     0.00000000000000    -0.85307188330822     0.00000000000000
   10     0.00000000000000     0.00000000000000     0.00000000000000     0.00000000000000    -0.85307188330822

                 6                   7                   8                   9                  10

    1    -1.25884215889766    -0.95061741464479     1.26119383583584     0.00000000000000     0.00000000000000
    2    -0.95061741464479    -0.96736437204214     0.40746709731789     0.00000000000000     0.00000000000000
    3    -1.26119383583584    -0.40746709731789     0.42021301528564     0.00000000000000     0.00000000000000
    4     0.00000000000000     0.00000000000000     0.00000000000000    -0.85307188330822     0.00000000000000
    5     0.00000000000000     0.00000000000000     0.00000000000000     0.00000000000000    -0.85307188330822
    6    -2.09418705323061    -1.09410397855922     0.27750696663832     0.00000000000000     0.00000000000000
    7    -1.09410397855922    -1.04463873511813     0.20367793411758     0.00000000000000     0.00000000000000
    8     0.27750696663832     0.20367793411758    -1.78596181998244     0.00000000000000     0.00000000000000
    9     0.00000000000000     0.00000000000000     0.00000000000000    -1.52085342860117     0.00000000000000
   10     0.00000000000000     0.00000000000000     0.00000000000000     0.00000000000000    -1.52085342860117



  ## One Electron Ints (Symmetry 0) ##
  Irrep: 1 Size: 10 x 10

                 1                   2                   3                   4                   5

    1    -1.12472982611819    -0.89286984749384    -0.27750696663832     0.00000000000000     0.00000000000000
    2    -0.89286984749384    -0.86163873511813    -0.20367793411758     0.00000000000000     0.00000000000000
    3    -0.27750696663832    -0.20367793411758     0.03153818001756     0.00000000000000     0.00000000000000
    4     0.00000000000000     0.00000000000000     0.00000000000000     0.29664657139884     0.00000000000000
    5     0.00000000000000     0.00000000000000     0.00000000000000     0.00000000000000     0.29664657139884
    6    -0.95313772493865    -0.80060308759059    -0.57906511752723     0.00000000000000     0.00000000000000
    7    -0.80060308759059    -0.81459508331846    -0.33065310600606     0.00000000000000     0.00000000000000
    8     0.57906511752723     0.33065310600606    -0.26457328779729     0.00000000000000     0.00000000000000
    9     0.00000000000000     0.00000000000000     0.00000000000000    -0.13572561037577     0.00000000000000
   10     0.00000000000000     0.00000000000000     0.00000000000000     0.00000000000000    -0.13572561037577

                 6                   7                   8                   9                  10

    1    -0.95313772493865    -0.80060308759059     0.57906511752723     0.00000000000000     0.00000000000000
    2    -0.80060308759059    -0.81459508331846     0.33065310600606     0.00000000000000     0.00000000000000
    3    -0.57906511752723    -0.33065310600606    -0.26457328779729     0.00000000000000     0.00000000000000
    4     0.00000000000000     0.00000000000000     0.00000000000000    -0.13572561037577     0.00000000000000
    5     0.00000000000000     0.00000000000000     0.00000000000000     0.00000000000000    -0.13572561037577
    6    -1.12472982611819    -0.89286984749384     0.27750696663832     0.00000000000000     0.00000000000000
    7    -0.89286984749384    -0.86163873511813     0.20367793411758     0.00000000000000     0.00000000000000
    8     0.27750696663832     0.20367793411758     0.03153818001756     0.00000000000000     0.00000000000000
    9     0.00000000000000     0.00000000000000     0.00000000000000     0.29664657139884     0.00000000000000
   10     0.00000000000000     0.00000000000000     0.00000000000000     0.00000000000000     0.29664657139884




	There are 0 unique integrals

  ## Fock (Symmetry 0) ##
  Irrep: 1 Size: 10 x 10

                 1                   2                   3                   4                   5

    1     0.16851250828220    -0.27394400428280     0.45187251460604    -0.00000000000000     0.00000000000000
    2    -0.27394400428279    -0.36527106434352     0.14978238165000    -0.00000000000000     0.00000000000000
    3     0.45187251460604     0.14978238165000     0.76956439416023    -0.00000000000000     0.00000000000000
    4    -0.00000000000000    -0.00000000000000    -0.00000000000000     0.51196859733448     0.00000000000000
    5     0.00000000000000     0.00000000000000     0.00000000000000     0.00000000000000     0.51196859733448
    6    -1.07318262068190    -0.16030056861712    -1.02843463911632     0.00000000000000     0.00000000000000
    7    -0.16030056861712    -0.15236202127737    -0.11878933768946     0.00000000000000     0.00000000000000
    8     1.02843463911632     0.11878933768945     0.16641405488348    -0.00000000000000     0.00000000000000
    9     0.00000000000000     0.00000000000000     0.00000000000000    -0.40674844359922     0.00000000000000
   10     0.00000000000000     0.00000000000000     0.00000000000000     0.00000000000000    -0.40674844359922

                 6                   7                   8                   9                  10

    1    -1.07318262068190    -0.16030056861712     1.02843463911632     0.00000000000000     0.00000000000000
    2    -0.16030056861712    -0.15236202127737     0.11878933768946     0.00000000000000     0.00000000000000
    3    -1.02843463911632    -0.11878933768945     0.16641405488348     0.00000000000000     0.00000000000000
    4     0.00000000000000     0.00000000000000    -0.00000000000000    -0.40674844359922     0.00000000000000
    5     0.00000000000000     0.00000000000000     0.00000000000000     0.00000000000000    -0.40674844359922
    6     0.16851250828221    -0.27394400428280    -0.45187251460604    -0.00000000000000     0.00000000000000
    7    -0.27394400428279    -0.36527106434352    -0.14978238165000    -0.00000000000000     0.00000000000000
    8    -0.45187251460604    -0.14978238165000     0.76956439416023     0.00000000000000     0.00000000000000
    9    -0.00000000000000    -0.00000000000000     0.00000000000000     0.51196859733448     0.00000000000000
   10     0.00000000000000     0.00000000000000     0.00000000000000     0.00000000000000     0.51196859733448



  ## C (Symmetry 0) ##
  Irrep: 1 Size: 10 x 10

                 1                   2                   3                   4                   5

    1    -1.94817375401152    -0.47970584774598    -0.49669166173631    -0.27015991123692     0.16346668262377
    2     1.40037216038825     1.11536259361162    -1.89348457189777    -0.01353469435340    -0.03584582510230
    3    -0.87567335942456     0.83247862970861    -0.64917656285270    -0.21666099964448     0.32951105928439
    4     0.33169482646823    -0.64942615275430    -0.33201948242721     0.22947801854924    -0.00000000000000
    5    -0.16980293682586    -0.00791392023943    -0.15415736605508     0.77212609973253     0.21408878674536
    6     1.25371568889052    -0.31634789025735     0.23486893508695     0.49195493463623    -1.15803896261374
    7    -1.01005942766207    -0.39655259273083     2.17757565421046    -0.07731133649182     0.43674536999262
    8    -0.76988779895629     0.05324541150615    -0.52400651183195    -0.16465140938314    -0.58358159363256
    9    -0.09499658031387     0.18599404861071     0.09508956097990    -0.80125696408722     0.00000000000000
   10     0.59289245442474     0.02763264100486     0.53826359447354    -0.22113501083715    -0.06131450056338

                 6                   7                   8                   9                  10

    1    -1.64135526507169    -0.14133619544756     0.85202019605116    -0.27015991123692     1.78523433753349
    2    -0.36403060665610    -0.83047956493007    -0.14988201699739    -0.01353469435340     0.13347345820757
    3    -1.04312460920607     0.64780781224487     0.45525015587621    -0.21666099964448     1.23329486962796
    4    -0.33169482646823     0.64942615275430    -0.33201948242721    -0.22947801854924     0.00000000000000
    5     0.16980293682586     0.00791392023943    -0.15415736605508     0.77212609973253     0.21408878674536
    6     1.30742960276410    -0.25711039637686    -0.17266249389442     0.49195493463622    -2.39050041396416
    7     0.01810635305844     0.73734288706787    -0.98685001978574    -0.07731133649182     0.12091205446223
    8    -0.85965896687356    -0.04575722350307     0.42004192472380    -0.16465140938314     1.77123511323218
    9     0.09499658031387    -0.18599404861071     0.09508956097990     0.80125696408722    -0.00000000000000
   10    -0.59289245442475    -0.02763264100486     0.53826359447354    -0.22113501083715    -0.06131450056338




 In Bisection function HOMO = -1.307  LUMO =  2.580

 0.63646 = (-1.30740 + 2.58031)/2.0
 sum -  nocc_ = 5.07391251
 On Iteration in Bisection 0
 a: 5.07391  b:-0.49999

 -0.33547 = (-1.30740 + 0.63646)/2.0
 sum -  nocc_ = 1.48215009
 On Iteration in Bisection 1
 a: 1.48215  b:-0.49999

 -0.82144 = (-1.30740 + -0.33547)/2.0
 sum -  nocc_ = 0.02850581
 On Iteration in Bisection 2
 a: 0.02851  b:-0.49999

 -1.06442 = (-1.30740 + -0.82144)/2.0
 sum -  nocc_ = -0.02046891
 On Iteration in Bisection 3
 a: -0.02047  b:-0.49999

 -0.94293 = (-1.06442 + -0.82144)/2.0
 sum -  nocc_ = 0.00120181
 On Iteration in Bisection 4
 a: 0.00120  b:-0.02047

 -1.00367 = (-1.06442 + -0.94293)/2.0
 sum -  nocc_ = -0.00652217
 On Iteration in Bisection 5
 a: -0.00652  b:-0.02047

 -0.97330 = (-1.00367 + -0.94293)/2.0
 sum -  nocc_ = -0.00238743
 On Iteration in Bisection 6
 a: -0.00239  b:-0.00652

 -0.95811 = (-0.97330 + -0.94293)/2.0
 sum -  nocc_ = -0.00057656
 On Iteration in Bisection 7
 a: -0.00058  b:-0.00239

 -0.95052 = (-0.95811 + -0.94293)/2.0
 sum -  nocc_ = 0.00031043
 On Iteration in Bisection 8
 a: 0.00031  b:-0.00058

 -0.95432 = (-0.95811 + -0.95052)/2.0
 sum -  nocc_ = -0.00013283
 On Iteration in Bisection 9
 a: -0.00013  b:-0.00058

 -0.95242 = (-0.95432 + -0.95052)/2.0
 sum -  nocc_ = 0.00008876
 On Iteration in Bisection 10
 a: 0.00009  b:-0.00013

 -0.95337 = (-0.95432 + -0.95242)/2.0
 sum -  nocc_ = -0.00002203
 On Iteration in Bisection 11
 a: -0.00002  b:-0.00013

 -0.95289 = (-0.95337 + -0.95242)/2.0
 sum -  nocc_ = 0.00003336
 On Iteration in Bisection 12
 a: 0.00003  b:-0.00002

 -0.95313 = (-0.95337 + -0.95289)/2.0
 sum -  nocc_ = 0.00000566
 On Iteration in Bisection 13
 a: 0.00001  b:-0.00002

 -0.95325 = (-0.95337 + -0.95313)/2.0
 sum -  nocc_ = -0.00000818
 On Iteration in Bisection 14
 a: -0.00001  b:-0.00002

 -0.95319 = (-0.95325 + -0.95313)/2.0
 sum -  nocc_ = -0.00000126
 On Iteration in Bisection 15
 a: -0.00000  b:-0.00001

 -0.95316 = (-0.95319 + -0.95313)/2.0
 sum -  nocc_ = 0.00000220
 On Iteration in Bisection 16
 a: 0.00000  b:-0.00000

 -0.95317 = (-0.95319 + -0.95316)/2.0
 sum -  nocc_ = 0.00000047
 On Iteration in Bisection 17
 a: 0.00000  b:-0.00000

 -0.95318 = (-0.95319 + -0.95317)/2.0
 sum -  nocc_ = -0.00000039
 On Iteration in Bisection 18
 a: -0.00000  b:-0.00000

 -0.95318 = (-0.95318 + -0.95317)/2.0
 sum -  nocc_ = 0.00000004
 On Iteration in Bisection 19
 a: 0.00000  b:-0.00000

 -0.95318 = (-0.95318 + -0.95318)/2.0
 sum -  nocc_ = -0.00000018
 On Iteration in Bisection 20
 a: -0.00000  b:-0.00000

 -0.95318 = (-0.95318 + -0.95318)/2.0
 sum -  nocc_ = -0.00000007
 On Iteration in Bisection 21
 a: -0.00000  b:-0.00000

 -0.95318 = (-0.95318 + -0.95318)/2.0
 sum -  nocc_ = -0.00000002
 On Iteration in Bisection 22
 a: -0.00000  b:-0.00000

 -0.95318 = (-0.95318 + -0.95318)/2.0
 sum -  nocc_ = 0.00000001
 On Iteration in Bisection 23
 a: 0.00000  b:-0.00000

 -0.95318 = (-0.95318 + -0.95318)/2.0
 sum -  nocc_ = -0.00000000
 ef = -0.95318 sum = 1.00000 

 Iter: 0  T:    20000.000  val:-0.953179  sumni 0.00000
 ne = 1.0000

Nuc Replusion =       0.755967440843
 1st iteration =       0.880818944958
 In Bisection function HOMO = -0.197  LUMO =  3.702

 1.75230 = (-0.19743 + 3.70203)/2.0
 sum -  nocc_ = 5.08255043
 On Iteration in Bisection 0
 a: 5.08255  b:-0.49788

 0.77743 = (-0.19743 + 1.75230)/2.0
 sum -  nocc_ = 2.11397857
 On Iteration in Bisection 1
 a: 2.11398  b:-0.49788

 0.29000 = (-0.19743 + 0.77743)/2.0
 sum -  nocc_ = 0.95883858
 On Iteration in Bisection 2
 a: 0.95884  b:-0.49788

 0.04628 = (-0.19743 + 0.29000)/2.0
 sum -  nocc_ = 0.07027693
 On Iteration in Bisection 3
 a: 0.07028  b:-0.49788

 -0.07557 = (-0.19743 + 0.04628)/2.0
 sum -  nocc_ = -0.11305917
 On Iteration in Bisection 4
 a: -0.11306  b:-0.49788

 -0.01465 = (-0.07557 + 0.04628)/2.0
 sum -  nocc_ = -0.01609190
 On Iteration in Bisection 5
 a: -0.01609  b:-0.11306

 0.01582 = (-0.01465 + 0.04628)/2.0
 sum -  nocc_ = 0.02488691
 On Iteration in Bisection 6
 a: 0.02489  b:-0.01609

 0.00059 = (-0.01465 + 0.01582)/2.0
 sum -  nocc_ = 0.00429207
 On Iteration in Bisection 7
 a: 0.00429  b:-0.01609

 -0.00703 = (-0.01465 + 0.00059)/2.0
 sum -  nocc_ = -0.00587073
 On Iteration in Bisection 8
 a: -0.00587  b:-0.01609

 -0.00322 = (-0.00703 + 0.00059)/2.0
 sum -  nocc_ = -0.00078896
 On Iteration in Bisection 9
 a: -0.00079  b:-0.00587

 -0.00132 = (-0.00322 + 0.00059)/2.0
 sum -  nocc_ = 0.00175078
 On Iteration in Bisection 10
 a: 0.00175  b:-0.00079

 -0.00227 = (-0.00322 + -0.00132)/2.0
 sum -  nocc_ = 0.00048082
 On Iteration in Bisection 11
 a: 0.00048  b:-0.00079

 -0.00275 = (-0.00322 + -0.00227)/2.0
 sum -  nocc_ = -0.00015408
 On Iteration in Bisection 12
 a: -0.00015  b:-0.00079

 -0.00251 = (-0.00275 + -0.00227)/2.0
 sum -  nocc_ = 0.00016337
 On Iteration in Bisection 13
 a: 0.00016  b:-0.00015

 -0.00263 = (-0.00275 + -0.00251)/2.0
 sum -  nocc_ = 0.00000464
 On Iteration in Bisection 14
 a: 0.00000  b:-0.00015

 -0.00269 = (-0.00275 + -0.00263)/2.0
 sum -  nocc_ = -0.00007472
 On Iteration in Bisection 15
 a: -0.00007  b:-0.00015

 -0.00266 = (-0.00269 + -0.00263)/2.0
 sum -  nocc_ = -0.00003504
 On Iteration in Bisection 16
 a: -0.00004  b:-0.00007

 -0.00264 = (-0.00266 + -0.00263)/2.0
 sum -  nocc_ = -0.00001520
 On Iteration in Bisection 17
 a: -0.00002  b:-0.00004

 -0.00263 = (-0.00264 + -0.00263)/2.0
 sum -  nocc_ = -0.00000528
 On Iteration in Bisection 18
 a: -0.00001  b:-0.00002

 -0.00263 = (-0.00263 + -0.00263)/2.0
 sum -  nocc_ = -0.00000032
 On Iteration in Bisection 19
 a: -0.00000  b:-0.00001

 -0.00263 = (-0.00263 + -0.00263)/2.0
 sum -  nocc_ = 0.00000216
 On Iteration in Bisection 20
 a: 0.00000  b:-0.00000

 -0.00263 = (-0.00263 + -0.00263)/2.0
 sum -  nocc_ = 0.00000092
 On Iteration in Bisection 21
 a: 0.00000  b:-0.00000

 -0.00263 = (-0.00263 + -0.00263)/2.0
 sum -  nocc_ = 0.00000030
 On Iteration in Bisection 22
 a: 0.00000  b:-0.00000

 -0.00263 = (-0.00263 + -0.00263)/2.0
 sum -  nocc_ = -0.00000001
 ef = -0.00263 sum = 1.00000 

 Iter: 0  T:    20000.000  val:-0.002629  sumni 0.00000
 ne = 1.0000

 iter:1  failiter:1  energy:     -1.387154059953  total:     -0.631186619110  error:     -0.260229367406
 In Bisection function HOMO = -0.612  LUMO =  3.829

 1.60873 = (-0.61188 + 3.82934)/2.0
 sum -  nocc_ = 4.99986852
 On Iteration in Bisection 0
 a: 4.99987  b:-0.50000

 0.49842 = (-0.61188 + 1.60873)/2.0
 sum -  nocc_ = 1.68094801
 On Iteration in Bisection 1
 a: 1.68095  b:-0.50000

 -0.05673 = (-0.61188 + 0.49842)/2.0
 sum -  nocc_ = 0.02470201
 On Iteration in Bisection 2
 a: 0.02470  b:-0.50000

 -0.33430 = (-0.61188 + -0.05673)/2.0
 sum -  nocc_ = -0.01201774
 On Iteration in Bisection 3
 a: -0.01202  b:-0.50000

 -0.19552 = (-0.33430 + -0.05673)/2.0
 sum -  nocc_ = 0.00144519
 On Iteration in Bisection 4
 a: 0.00145  b:-0.01202

 -0.26491 = (-0.33430 + -0.19552)/2.0
 sum -  nocc_ = -0.00320717
 On Iteration in Bisection 5
 a: -0.00321  b:-0.01202

 -0.23021 = (-0.26491 + -0.19552)/2.0
 sum -  nocc_ = -0.00076491
 On Iteration in Bisection 6
 a: -0.00076  b:-0.00321

 -0.21287 = (-0.23021 + -0.19552)/2.0
 sum -  nocc_ = 0.00032790
 On Iteration in Bisection 7
 a: 0.00033  b:-0.00076

 -0.22154 = (-0.23021 + -0.21287)/2.0
 sum -  nocc_ = -0.00021650
 On Iteration in Bisection 8
 a: -0.00022  b:-0.00076

 -0.21720 = (-0.22154 + -0.21287)/2.0
 sum -  nocc_ = 0.00005557
 On Iteration in Bisection 9
 a: 0.00006  b:-0.00022

 -0.21937 = (-0.22154 + -0.21720)/2.0
 sum -  nocc_ = -0.00008042
 On Iteration in Bisection 10
 a: -0.00008  b:-0.00022

 -0.21829 = (-0.21937 + -0.21720)/2.0
 sum -  nocc_ = -0.00001242
 On Iteration in Bisection 11
 a: -0.00001  b:-0.00008

 -0.21774 = (-0.21829 + -0.21720)/2.0
 sum -  nocc_ = 0.00002157
 On Iteration in Bisection 12
 a: 0.00002  b:-0.00001

 -0.21802 = (-0.21829 + -0.21774)/2.0
 sum -  nocc_ = 0.00000458
 On Iteration in Bisection 13
 a: 0.00000  b:-0.00001

 -0.21815 = (-0.21829 + -0.21802)/2.0
 sum -  nocc_ = -0.00000392
 On Iteration in Bisection 14
 a: -0.00000  b:-0.00001

 -0.21808 = (-0.21815 + -0.21802)/2.0
 sum -  nocc_ = 0.00000033
 On Iteration in Bisection 15
 a: 0.00000  b:-0.00000

 -0.21812 = (-0.21815 + -0.21808)/2.0
 sum -  nocc_ = -0.00000180
 On Iteration in Bisection 16
 a: -0.00000  b:-0.00000

 -0.21810 = (-0.21812 + -0.21808)/2.0
 sum -  nocc_ = -0.00000074
 On Iteration in Bisection 17
 a: -0.00000  b:-0.00000

 -0.21809 = (-0.21810 + -0.21808)/2.0
 sum -  nocc_ = -0.00000020
 On Iteration in Bisection 18
 a: -0.00000  b:-0.00000

 -0.21809 = (-0.21809 + -0.21808)/2.0
 sum -  nocc_ = 0.00000006
 On Iteration in Bisection 19
 a: 0.00000  b:-0.00000

 -0.21809 = (-0.21809 + -0.21809)/2.0
 sum -  nocc_ = -0.00000007
 On Iteration in Bisection 20
 a: -0.00000  b:-0.00000

 -0.21809 = (-0.21809 + -0.21809)/2.0
 sum -  nocc_ = -0.00000001
 ef = -0.21809 sum = 1.00000 

 Iter: 1  T:    20000.000  val:-0.218089  sumni 0.00000
 ne = 1.0000

 iter:2  failiter:2  energy:     -1.885532219351  total:     -1.129564778508  error:     -0.498378159398
 In Bisection function HOMO = -0.605  LUMO =  3.881

 1.63840 = (-0.60454 + 3.88134)/2.0
 sum -  nocc_ = 4.99688179
 On Iteration in Bisection 0
 a: 4.99688  b:-0.50000

 0.51693 = (-0.60454 + 1.63840)/2.0
 sum -  nocc_ = 1.67475899
 On Iteration in Bisection 1
 a: 1.67476  b:-0.50000

 -0.04381 = (-0.60454 + 0.51693)/2.0
 sum -  nocc_ = 0.01984674
 On Iteration in Bisection 2
 a: 0.01985  b:-0.50000

 -0.32417 = (-0.60454 + -0.04381)/2.0
 sum -  nocc_ = -0.01156658
 On Iteration in Bisection 3
 a: -0.01157  b:-0.50000

 -0.18399 = (-0.32417 + -0.04381)/2.0
 sum -  nocc_ = 0.00091887
 On Iteration in Bisection 4
 a: 0.00092  b:-0.01157

 -0.25408 = (-0.32417 + -0.18399)/2.0
 sum -  nocc_ = -0.00319970
 On Iteration in Bisection 5
 a: -0.00320  b:-0.01157

 -0.21904 = (-0.25408 + -0.18399)/2.0
 sum -  nocc_ = -0.00098721
 On Iteration in Bisection 6
 a: -0.00099  b:-0.00320

 -0.20151 = (-0.21904 + -0.18399)/2.0
 sum -  nocc_ = -0.00003292
 On Iteration in Bisection 7
 a: -0.00003  b:-0.00099

 -0.19275 = (-0.20151 + -0.18399)/2.0
 sum -  nocc_ = 0.00043881
 On Iteration in Bisection 8
 a: 0.00044  b:-0.00003

 -0.19713 = (-0.20151 + -0.19275)/2.0
 sum -  nocc_ = 0.00020246
 On Iteration in Bisection 9
 a: 0.00020  b:-0.00003

 -0.19932 = (-0.20151 + -0.19713)/2.0
 sum -  nocc_ = 0.00008472
 On Iteration in Bisection 10
 a: 0.00008  b:-0.00003

 -0.20042 = (-0.20151 + -0.19932)/2.0
 sum -  nocc_ = 0.00002589
 On Iteration in Bisection 11
 a: 0.00003  b:-0.00003

 -0.20097 = (-0.20151 + -0.20042)/2.0
 sum -  nocc_ = -0.00000351
 On Iteration in Bisection 12
 a: -0.00000  b:-0.00003

 -0.20069 = (-0.20097 + -0.20042)/2.0
 sum -  nocc_ = 0.00001119
 On Iteration in Bisection 13
 a: 0.00001  b:-0.00000

 -0.20083 = (-0.20097 + -0.20069)/2.0
 sum -  nocc_ = 0.00000384
 On Iteration in Bisection 14
 a: 0.00000  b:-0.00000

 -0.20090 = (-0.20097 + -0.20083)/2.0
 sum -  nocc_ = 0.00000016
 On Iteration in Bisection 15
 a: 0.00000  b:-0.00000

 -0.20093 = (-0.20097 + -0.20090)/2.0
 sum -  nocc_ = -0.00000168
 On Iteration in Bisection 16
 a: -0.00000  b:-0.00000

 -0.20091 = (-0.20093 + -0.20090)/2.0
 sum -  nocc_ = -0.00000076
 On Iteration in Bisection 17
 a: -0.00000  b:-0.00000

 -0.20091 = (-0.20091 + -0.20090)/2.0
 sum -  nocc_ = -0.00000030
 On Iteration in Bisection 18
 a: -0.00000  b:-0.00000

 -0.20090 = (-0.20091 + -0.20090)/2.0
 sum -  nocc_ = -0.00000007
 On Iteration in Bisection 19
 a: -0.00000  b:-0.00000

 -0.20090 = (-0.20090 + -0.20090)/2.0
 sum -  nocc_ = 0.00000005
 On Iteration in Bisection 20
 a: 0.00000  b:-0.00000

 -0.20090 = (-0.20090 + -0.20090)/2.0
 sum -  nocc_ = -0.00000001
 On Iteration in Bisection 21
 a: -0.00000  b:-0.00000

 -0.20090 = (-0.20090 + -0.20090)/2.0
 sum -  nocc_ = 0.00000002
 On Iteration in Bisection 22
 a: 0.00000  b:-0.00000

 -0.20090 = (-0.20090 + -0.20090)/2.0
 sum -  nocc_ = 0.00000000
 ef = -0.20090 sum = 1.00000 

 Iter: 2  T:    20000.000  val:-0.200900  sumni 0.00000
 ne = 1.0000

 iter:3  failiter:3  energy:     -1.879903588938  total:     -1.123936148096  error:      0.005628630412
 In Bisection function HOMO = -0.605  LUMO =  3.882

 1.63889 = (-0.60464 + 3.88241)/2.0
 sum -  nocc_ = 4.99681634
 On Iteration in Bisection 0
 a: 4.99682  b:-0.50000

 0.51712 = (-0.60464 + 1.63889)/2.0
 sum -  nocc_ = 1.67402186
 On Iteration in Bisection 1
 a: 1.67402  b:-0.50000

 -0.04376 = (-0.60464 + 0.51712)/2.0
 sum -  nocc_ = 0.01966643
 On Iteration in Bisection 2
 a: 0.01967  b:-0.50000

 -0.32420 = (-0.60464 + -0.04376)/2.0
 sum -  nocc_ = -0.01155560
 On Iteration in Bisection 3
 a: -0.01156  b:-0.50000

 -0.18398 = (-0.32420 + -0.04376)/2.0
 sum -  nocc_ = 0.00089941
 On Iteration in Bisection 4
 a: 0.00090  b:-0.01156

 -0.25409 = (-0.32420 + -0.18398)/2.0
 sum -  nocc_ = -0.00320145
 On Iteration in Bisection 5
 a: -0.00320  b:-0.01156

 -0.21904 = (-0.25409 + -0.18398)/2.0
 sum -  nocc_ = -0.00099631
 On Iteration in Bisection 6
 a: -0.00100  b:-0.00320

 -0.20151 = (-0.21904 + -0.18398)/2.0
 sum -  nocc_ = -0.00004668
 On Iteration in Bisection 7
 a: -0.00005  b:-0.00100

 -0.19274 = (-0.20151 + -0.18398)/2.0
 sum -  nocc_ = 0.00042236
 On Iteration in Bisection 8
 a: 0.00042  b:-0.00005

 -0.19713 = (-0.20151 + -0.19274)/2.0
 sum -  nocc_ = 0.00018740
 On Iteration in Bisection 9
 a: 0.00019  b:-0.00005

 -0.19932 = (-0.20151 + -0.19713)/2.0
 sum -  nocc_ = 0.00007032
 On Iteration in Bisection 10
 a: 0.00007  b:-0.00005

 -0.20041 = (-0.20151 + -0.19932)/2.0
 sum -  nocc_ = 0.00001182
 On Iteration in Bisection 11
 a: 0.00001  b:-0.00005

 -0.20096 = (-0.20151 + -0.20041)/2.0
 sum -  nocc_ = -0.00001743
 On Iteration in Bisection 12
 a: -0.00002  b:-0.00005

 -0.20069 = (-0.20096 + -0.20041)/2.0
 sum -  nocc_ = -0.00000281
 On Iteration in Bisection 13
 a: -0.00000  b:-0.00002

 -0.20055 = (-0.20069 + -0.20041)/2.0
 sum -  nocc_ = 0.00000451
 On Iteration in Bisection 14
 a: 0.00000  b:-0.00000

 -0.20062 = (-0.20069 + -0.20055)/2.0
 sum -  nocc_ = 0.00000085
 On Iteration in Bisection 15
 a: 0.00000  b:-0.00000

 -0.20065 = (-0.20069 + -0.20062)/2.0
 sum -  nocc_ = -0.00000098
 On Iteration in Bisection 16
 a: -0.00000  b:-0.00000

 -0.20063 = (-0.20065 + -0.20062)/2.0
 sum -  nocc_ = -0.00000006
 On Iteration in Bisection 17
 a: -0.00000  b:-0.00000

 -0.20063 = (-0.20063 + -0.20062)/2.0
 sum -  nocc_ = 0.00000039
 On Iteration in Bisection 18
 a: 0.00000  b:-0.00000

 -0.20063 = (-0.20063 + -0.20063)/2.0
 sum -  nocc_ = 0.00000017
 On Iteration in Bisection 19
 a: 0.00000  b:-0.00000

 -0.20063 = (-0.20063 + -0.20063)/2.0
 sum -  nocc_ = 0.00000005
 On Iteration in Bisection 20
 a: 0.00000  b:-0.00000

 -0.20063 = (-0.20063 + -0.20063)/2.0
 sum -  nocc_ = -0.00000001
 ef = -0.20063 sum = 1.00000 

 Iter: 3  T:    20000.000  val:-0.200634  sumni 0.00000
 ne = 1.0000

 iter:4  failiter:4  energy:     -1.880077288877  total:     -1.124109848035  error:     -0.000173699939
 In Bisection function HOMO = -0.605  LUMO =  3.882

 1.63888 = (-0.60469 + 3.88245)/2.0
 sum -  nocc_ = 4.99681359
 On Iteration in Bisection 0
 a: 4.99681  b:-0.50000

 0.51709 = (-0.60469 + 1.63888)/2.0
 sum -  nocc_ = 1.67386985
 On Iteration in Bisection 1
 a: 1.67387  b:-0.50000

 -0.04380 = (-0.60469 + 0.51709)/2.0
 sum -  nocc_ = 0.01964393
 On Iteration in Bisection 2
 a: 0.01964  b:-0.50000

 -0.32425 = (-0.60469 + -0.04380)/2.0
 sum -  nocc_ = -0.01155495
 On Iteration in Bisection 3
 a: -0.01155  b:-0.50000

 -0.18402 = (-0.32425 + -0.04380)/2.0
 sum -  nocc_ = 0.00089694
 On Iteration in Bisection 4
 a: 0.00090  b:-0.01155

 -0.25413 = (-0.32425 + -0.18402)/2.0
 sum -  nocc_ = -0.00320193
 On Iteration in Bisection 5
 a: -0.00320  b:-0.01155

 -0.21908 = (-0.25413 + -0.18402)/2.0
 sum -  nocc_ = -0.00099759
 On Iteration in Bisection 6
 a: -0.00100  b:-0.00320

 -0.20155 = (-0.21908 + -0.18402)/2.0
 sum -  nocc_ = -0.00004849
 On Iteration in Bisection 7
 a: -0.00005  b:-0.00100

 -0.19279 = (-0.20155 + -0.18402)/2.0
 sum -  nocc_ = 0.00042023
 On Iteration in Bisection 8
 a: 0.00042  b:-0.00005

 -0.19717 = (-0.20155 + -0.19279)/2.0
 sum -  nocc_ = 0.00018543
 On Iteration in Bisection 9
 a: 0.00019  b:-0.00005

 -0.19936 = (-0.20155 + -0.19717)/2.0
 sum -  nocc_ = 0.00006843
 On Iteration in Bisection 10
 a: 0.00007  b:-0.00005

 -0.20045 = (-0.20155 + -0.19936)/2.0
 sum -  nocc_ = 0.00000997
 On Iteration in Bisection 11
 a: 0.00001  b:-0.00005

 -0.20100 = (-0.20155 + -0.20045)/2.0
 sum -  nocc_ = -0.00001926
 On Iteration in Bisection 12
 a: -0.00002  b:-0.00005

 -0.20073 = (-0.20100 + -0.20045)/2.0
 sum -  nocc_ = -0.00000464
 On Iteration in Bisection 13
 a: -0.00000  b:-0.00002

 -0.20059 = (-0.20073 + -0.20045)/2.0
 sum -  nocc_ = 0.00000267
 On Iteration in Bisection 14
 a: 0.00000  b:-0.00000

 -0.20066 = (-0.20073 + -0.20059)/2.0
 sum -  nocc_ = -0.00000099
 On Iteration in Bisection 15
 a: -0.00000  b:-0.00000

 -0.20063 = (-0.20066 + -0.20059)/2.0
 sum -  nocc_ = 0.00000084
 On Iteration in Bisection 16
 a: 0.00000  b:-0.00000

 -0.20064 = (-0.20066 + -0.20063)/2.0
 sum -  nocc_ = -0.00000008
 On Iteration in Bisection 17
 a: -0.00000  b:-0.00000

 -0.20063 = (-0.20064 + -0.20063)/2.0
 sum -  nocc_ = 0.00000038
 On Iteration in Bisection 18
 a: 0.00000  b:-0.00000

 -0.20064 = (-0.20064 + -0.20063)/2.0
 sum -  nocc_ = 0.00000015
 On Iteration in Bisection 19
 a: 0.00000  b:-0.00000

 -0.20064 = (-0.20064 + -0.20064)/2.0
 sum -  nocc_ = 0.00000004
 On Iteration in Bisection 20
 a: 0.00000  b:-0.00000

 -0.20064 = (-0.20064 + -0.20064)/2.0
 sum -  nocc_ = -0.00000002
 On Iteration in Bisection 21
 a: -0.00000  b:-0.00000

 -0.20064 = (-0.20064 + -0.20064)/2.0
 sum -  nocc_ = 0.00000001
 On Iteration in Bisection 22
 a: 0.00000  b:-0.00000

 -0.20064 = (-0.20064 + -0.20064)/2.0
 sum -  nocc_ = -0.00000000
 ef = -0.20064 sum = 1.00000 

 Iter: 4  T:    20000.000  val:-0.200641  sumni 0.00000
 ne = 1.0000

 iter:5  failiter:5  energy:     -1.880128175997  total:     -1.124160735154  error:     -0.000050887119
 In Bisection function HOMO = -0.605  LUMO =  3.882

 1.63887 = (-0.60470 + 3.88245)/2.0
 sum -  nocc_ = 4.99681360
 On Iteration in Bisection 0
 a: 4.99681  b:-0.50000

 0.51709 = (-0.60470 + 1.63887)/2.0
 sum -  nocc_ = 1.67384546
 On Iteration in Bisection 1
 a: 1.67385  b:-0.50000

 -0.04381 = (-0.60470 + 0.51709)/2.0
 sum -  nocc_ = 0.01964079
 On Iteration in Bisection 2
 a: 0.01964  b:-0.50000

 -0.32425 = (-0.60470 + -0.04381)/2.0
 sum -  nocc_ = -0.01155490
 On Iteration in Bisection 3
 a: -0.01155  b:-0.50000

 -0.18403 = (-0.32425 + -0.04381)/2.0
 sum -  nocc_ = 0.00089659
 On Iteration in Bisection 4
 a: 0.00090  b:-0.01155

 -0.25414 = (-0.32425 + -0.18403)/2.0
 sum -  nocc_ = -0.00320202
 On Iteration in Bisection 5
 a: -0.00320  b:-0.01155

 -0.21909 = (-0.25414 + -0.18403)/2.0
 sum -  nocc_ = -0.00099777
 On Iteration in Bisection 6
 a: -0.00100  b:-0.00320

 -0.20156 = (-0.21909 + -0.18403)/2.0
 sum -  nocc_ = -0.00004874
 On Iteration in Bisection 7
 a: -0.00005  b:-0.00100

 -0.19279 = (-0.20156 + -0.18403)/2.0
 sum -  nocc_ = 0.00041993
 On Iteration in Bisection 8
 a: 0.00042  b:-0.00005

 -0.19718 = (-0.20156 + -0.19279)/2.0
 sum -  nocc_ = 0.00018515
 On Iteration in Bisection 9
 a: 0.00019  b:-0.00005

 -0.19937 = (-0.20156 + -0.19718)/2.0
 sum -  nocc_ = 0.00006816
 On Iteration in Bisection 10
 a: 0.00007  b:-0.00005

 -0.20046 = (-0.20156 + -0.19937)/2.0
 sum -  nocc_ = 0.00000971
 On Iteration in Bisection 11
 a: 0.00001  b:-0.00005

 -0.20101 = (-0.20156 + -0.20046)/2.0
 sum -  nocc_ = -0.00001952
 On Iteration in Bisection 12
 a: -0.00002  b:-0.00005

 -0.20074 = (-0.20101 + -0.20046)/2.0
 sum -  nocc_ = -0.00000490
 On Iteration in Bisection 13
 a: -0.00000  b:-0.00002

 -0.20060 = (-0.20074 + -0.20046)/2.0
 sum -  nocc_ = 0.00000240
 On Iteration in Bisection 14
 a: 0.00000  b:-0.00000

 -0.20067 = (-0.20074 + -0.20060)/2.0
 sum -  nocc_ = -0.00000125
 On Iteration in Bisection 15
 a: -0.00000  b:-0.00000

 -0.20063 = (-0.20067 + -0.20060)/2.0
 sum -  nocc_ = 0.00000058
 On Iteration in Bisection 16
 a: 0.00000  b:-0.00000

 -0.20065 = (-0.20067 + -0.20063)/2.0
 sum -  nocc_ = -0.00000034
 On Iteration in Bisection 17
 a: -0.00000  b:-0.00000

 -0.20064 = (-0.20065 + -0.20063)/2.0
 sum -  nocc_ = 0.00000012
 On Iteration in Bisection 18
 a: 0.00000  b:-0.00000

 -0.20065 = (-0.20065 + -0.20064)/2.0
 sum -  nocc_ = -0.00000011
 On Iteration in Bisection 19
 a: -0.00000  b:-0.00000

 -0.20065 = (-0.20065 + -0.20064)/2.0
 sum -  nocc_ = 0.00000001
 ef = -0.20065 sum = 1.00000 

 Iter: 5  T:    20000.000  val:-0.200645  sumni 0.00000
 ne = 1.0000

 iter:6  failiter:6  energy:     -1.880137399373  total:     -1.124169958530  error:     -0.000009223376
 In Bisection function HOMO = -0.605  LUMO =  3.882

 1.63887 = (-0.60470 + 3.88245)/2.0
 sum -  nocc_ = 4.99681363
 On Iteration in Bisection 0
 a: 4.99681  b:-0.50000

 0.51708 = (-0.60470 + 1.63887)/2.0
 sum -  nocc_ = 1.67384238
 On Iteration in Bisection 1
 a: 1.67384  b:-0.50000

 -0.04381 = (-0.60470 + 0.51708)/2.0
 sum -  nocc_ = 0.01964038
 On Iteration in Bisection 2
 a: 0.01964  b:-0.50000

 -0.32426 = (-0.60470 + -0.04381)/2.0
 sum -  nocc_ = -0.01155489
 On Iteration in Bisection 3
 a: -0.01155  b:-0.50000

 -0.18403 = (-0.32426 + -0.04381)/2.0
 sum -  nocc_ = 0.00089654
 On Iteration in Bisection 4
 a: 0.00090  b:-0.01155

 -0.25414 = (-0.32426 + -0.18403)/2.0
 sum -  nocc_ = -0.00320203
 On Iteration in Bisection 5
 a: -0.00320  b:-0.01155

 -0.21909 = (-0.25414 + -0.18403)/2.0
 sum -  nocc_ = -0.00099780
 On Iteration in Bisection 6
 a: -0.00100  b:-0.00320

 -0.20156 = (-0.21909 + -0.18403)/2.0
 sum -  nocc_ = -0.00004878
 On Iteration in Bisection 7
 a: -0.00005  b:-0.00100

 -0.19280 = (-0.20156 + -0.18403)/2.0
 sum -  nocc_ = 0.00041989
 On Iteration in Bisection 8
 a: 0.00042  b:-0.00005

 -0.19718 = (-0.20156 + -0.19280)/2.0
 sum -  nocc_ = 0.00018512
 On Iteration in Bisection 9
 a: 0.00019  b:-0.00005

 -0.19937 = (-0.20156 + -0.19718)/2.0
 sum -  nocc_ = 0.00006813
 On Iteration in Bisection 10
 a: 0.00007  b:-0.00005

 -0.20046 = (-0.20156 + -0.19937)/2.0
 sum -  nocc_ = 0.00000967
 On Iteration in Bisection 11
 a: 0.00001  b:-0.00005

 -0.20101 = (-0.20156 + -0.20046)/2.0
 sum -  nocc_ = -0.00001955
 On Iteration in Bisection 12
 a: -0.00002  b:-0.00005

 -0.20074 = (-0.20101 + -0.20046)/2.0
 sum -  nocc_ = -0.00000494
 On Iteration in Bisection 13
 a: -0.00000  b:-0.00002

 -0.20060 = (-0.20074 + -0.20046)/2.0
 sum -  nocc_ = 0.00000237
 On Iteration in Bisection 14
 a: 0.00000  b:-0.00000

 -0.20067 = (-0.20074 + -0.20060)/2.0
 sum -  nocc_ = -0.00000128
 On Iteration in Bisection 15
 a: -0.00000  b:-0.00000

 -0.20064 = (-0.20067 + -0.20060)/2.0
 sum -  nocc_ = 0.00000054
 On Iteration in Bisection 16
 a: 0.00000  b:-0.00000

 -0.20065 = (-0.20067 + -0.20064)/2.0
 sum -  nocc_ = -0.00000037
 On Iteration in Bisection 17
 a: -0.00000  b:-0.00000

 -0.20064 = (-0.20065 + -0.20064)/2.0
 sum -  nocc_ = 0.00000009
 On Iteration in Bisection 18
 a: 0.00000  b:-0.00000

 -0.20065 = (-0.20065 + -0.20064)/2.0
 sum -  nocc_ = -0.00000014
 On Iteration in Bisection 19
 a: -0.00000  b:-0.00000

 -0.20065 = (-0.20065 + -0.20064)/2.0
 sum -  nocc_ = -0.00000003
 On Iteration in Bisection 20
 a: -0.00000  b:-0.00000

 -0.20065 = (-0.20065 + -0.20064)/2.0
 sum -  nocc_ = 0.00000003
 On Iteration in Bisection 21
 a: 0.00000  b:-0.00000

 -0.20065 = (-0.20065 + -0.20065)/2.0
 sum -  nocc_ = -0.00000000
 ef = -0.20065 sum = 1.00000 

 Iter: 6  T:    20000.000  val:-0.200646  sumni 0.00000
 ne = 1.0000

 iter:7  failiter:7  energy:     -1.880138701643  total:     -1.124171260801  error:     -0.000001302271
 In Bisection function HOMO = -0.605  LUMO =  3.882

 1.63887 = (-0.60470 + 3.88245)/2.0
 sum -  nocc_ = 4.99681363
 On Iteration in Bisection 0
 a: 4.99681  b:-0.50000

 0.51708 = (-0.60470 + 1.63887)/2.0
 sum -  nocc_ = 1.67384211
 On Iteration in Bisection 1
 a: 1.67384  b:-0.50000

 -0.04381 = (-0.60470 + 0.51708)/2.0
 sum -  nocc_ = 0.01964034
 On Iteration in Bisection 2
 a: 0.01964  b:-0.50000

 -0.32426 = (-0.60470 + -0.04381)/2.0
 sum -  nocc_ = -0.01155489
 On Iteration in Bisection 3
 a: -0.01155  b:-0.50000

 -0.18403 = (-0.32426 + -0.04381)/2.0
 sum -  nocc_ = 0.00089654
 On Iteration in Bisection 4
 a: 0.00090  b:-0.01155

 -0.25414 = (-0.32426 + -0.18403)/2.0
 sum -  nocc_ = -0.00320203
 On Iteration in Bisection 5
 a: -0.00320  b:-0.01155

 -0.21909 = (-0.25414 + -0.18403)/2.0
 sum -  nocc_ = -0.00099780
 On Iteration in Bisection 6
 a: -0.00100  b:-0.00320

 -0.20156 = (-0.21909 + -0.18403)/2.0
 sum -  nocc_ = -0.00004878
 On Iteration in Bisection 7
 a: -0.00005  b:-0.00100

 -0.19280 = (-0.20156 + -0.18403)/2.0
 sum -  nocc_ = 0.00041989
 On Iteration in Bisection 8
 a: 0.00042  b:-0.00005

 -0.19718 = (-0.20156 + -0.19280)/2.0
 sum -  nocc_ = 0.00018511
 On Iteration in Bisection 9
 a: 0.00019  b:-0.00005

 -0.19937 = (-0.20156 + -0.19718)/2.0
 sum -  nocc_ = 0.00006813
 On Iteration in Bisection 10
 a: 0.00007  b:-0.00005

 -0.20046 = (-0.20156 + -0.19937)/2.0
 sum -  nocc_ = 0.00000967
 On Iteration in Bisection 11
 a: 0.00001  b:-0.00005

 -0.20101 = (-0.20156 + -0.20046)/2.0
 sum -  nocc_ = -0.00001955
 On Iteration in Bisection 12
 a: -0.00002  b:-0.00005

 -0.20074 = (-0.20101 + -0.20046)/2.0
 sum -  nocc_ = -0.00000494
 On Iteration in Bisection 13
 a: -0.00000  b:-0.00002

 -0.20060 = (-0.20074 + -0.20046)/2.0
 sum -  nocc_ = 0.00000236
 On Iteration in Bisection 14
 a: 0.00000  b:-0.00000

 -0.20067 = (-0.20074 + -0.20060)/2.0
 sum -  nocc_ = -0.00000129
 On Iteration in Bisection 15
 a: -0.00000  b:-0.00000

 -0.20064 = (-0.20067 + -0.20060)/2.0
 sum -  nocc_ = 0.00000054
 On Iteration in Bisection 16
 a: 0.00000  b:-0.00000

 -0.20065 = (-0.20067 + -0.20064)/2.0
 sum -  nocc_ = -0.00000038
 On Iteration in Bisection 17
 a: -0.00000  b:-0.00000

 -0.20064 = (-0.20065 + -0.20064)/2.0
 sum -  nocc_ = 0.00000008
 On Iteration in Bisection 18
 a: 0.00000  b:-0.00000

 -0.20065 = (-0.20065 + -0.20064)/2.0
 sum -  nocc_ = -0.00000015
 On Iteration in Bisection 19
 a: -0.00000  b:-0.00000

 -0.20065 = (-0.20065 + -0.20064)/2.0
 sum -  nocc_ = -0.00000003
 On Iteration in Bisection 20
 a: -0.00000  b:-0.00000

 -0.20065 = (-0.20065 + -0.20064)/2.0
 sum -  nocc_ = 0.00000002
 On Iteration in Bisection 21
 a: 0.00000  b:-0.00000

 -0.20065 = (-0.20065 + -0.20065)/2.0
 sum -  nocc_ = -0.00000000
 ef = -0.20065 sum = 1.00000 

 Iter: 7  T:    20000.000  val:-0.200646  sumni 0.00000
 ne = 1.0000

 iter:8  failiter:8  energy:     -1.880138852366  total:     -1.124171411524  error:     -0.000000150723
 In Bisection function HOMO = -0.605  LUMO =  3.882

 1.63887 = (-0.60470 + 3.88245)/2.0
 sum -  nocc_ = 4.99681364
 On Iteration in Bisection 0
 a: 4.99681  b:-0.50000

 0.51708 = (-0.60470 + 1.63887)/2.0
 sum -  nocc_ = 1.67384211
 On Iteration in Bisection 1
 a: 1.67384  b:-0.50000

 -0.04381 = (-0.60470 + 0.51708)/2.0
 sum -  nocc_ = 0.01964033
 On Iteration in Bisection 2
 a: 0.01964  b:-0.50000

 -0.32426 = (-0.60470 + -0.04381)/2.0
 sum -  nocc_ = -0.01155489
 On Iteration in Bisection 3
 a: -0.01155  b:-0.50000

 -0.18403 = (-0.32426 + -0.04381)/2.0
 sum -  nocc_ = 0.00089654
 On Iteration in Bisection 4
 a: 0.00090  b:-0.01155

 -0.25414 = (-0.32426 + -0.18403)/2.0
 sum -  nocc_ = -0.00320203
 On Iteration in Bisection 5
 a: -0.00320  b:-0.01155

 -0.21909 = (-0.25414 + -0.18403)/2.0
 sum -  nocc_ = -0.00099780
 On Iteration in Bisection 6
 a: -0.00100  b:-0.00320

 -0.20156 = (-0.21909 + -0.18403)/2.0
 sum -  nocc_ = -0.00004878
 On Iteration in Bisection 7
 a: -0.00005  b:-0.00100

 -0.19280 = (-0.20156 + -0.18403)/2.0
 sum -  nocc_ = 0.00041989
 On Iteration in Bisection 8
 a: 0.00042  b:-0.00005

 -0.19718 = (-0.20156 + -0.19280)/2.0
 sum -  nocc_ = 0.00018511
 On Iteration in Bisection 9
 a: 0.00019  b:-0.00005

 -0.19937 = (-0.20156 + -0.19718)/2.0
 sum -  nocc_ = 0.00006813
 On Iteration in Bisection 10
 a: 0.00007  b:-0.00005

 -0.20046 = (-0.20156 + -0.19937)/2.0
 sum -  nocc_ = 0.00000967
 On Iteration in Bisection 11
 a: 0.00001  b:-0.00005

 -0.20101 = (-0.20156 + -0.20046)/2.0
 sum -  nocc_ = -0.00001955
 On Iteration in Bisection 12
 a: -0.00002  b:-0.00005

 -0.20074 = (-0.20101 + -0.20046)/2.0
 sum -  nocc_ = -0.00000494
 On Iteration in Bisection 13
 a: -0.00000  b:-0.00002

 -0.20060 = (-0.20074 + -0.20046)/2.0
 sum -  nocc_ = 0.00000236
 On Iteration in Bisection 14
 a: 0.00000  b:-0.00000

 -0.20067 = (-0.20074 + -0.20060)/2.0
 sum -  nocc_ = -0.00000129
 On Iteration in Bisection 15
 a: -0.00000  b:-0.00000

 -0.20064 = (-0.20067 + -0.20060)/2.0
 sum -  nocc_ = 0.00000054
 On Iteration in Bisection 16
 a: 0.00000  b:-0.00000

 -0.20065 = (-0.20067 + -0.20064)/2.0
 sum -  nocc_ = -0.00000038
 On Iteration in Bisection 17
 a: -0.00000  b:-0.00000

 -0.20064 = (-0.20065 + -0.20064)/2.0
 sum -  nocc_ = 0.00000008
 On Iteration in Bisection 18
 a: 0.00000  b:-0.00000

 -0.20065 = (-0.20065 + -0.20064)/2.0
 sum -  nocc_ = -0.00000015
 On Iteration in Bisection 19
 a: -0.00000  b:-0.00000

 -0.20065 = (-0.20065 + -0.20064)/2.0
 sum -  nocc_ = -0.00000003
 On Iteration in Bisection 20
 a: -0.00000  b:-0.00000

 -0.20065 = (-0.20065 + -0.20064)/2.0
 sum -  nocc_ = 0.00000002
 On Iteration in Bisection 21
 a: 0.00000  b:-0.00000

 -0.20065 = (-0.20065 + -0.20065)/2.0
 sum -  nocc_ = -0.00000000
 ef = -0.20065 sum = 1.00000 

 Iter: 8  T:    20000.000  val:-0.200646  sumni 0.00000
 ne = 1.0000

 iter:9  failiter:9  energy:     -1.880138865530  total:     -1.124171424687  error:     -0.000000013163
 In Bisection function HOMO = -0.605  LUMO =  3.882

 1.63887 = (-0.60470 + 3.88245)/2.0
 sum -  nocc_ = 4.99681364
 On Iteration in Bisection 0
 a: 4.99681  b:-0.50000

 0.51708 = (-0.60470 + 1.63887)/2.0
 sum -  nocc_ = 1.67384212
 On Iteration in Bisection 1
 a: 1.67384  b:-0.50000

 -0.04381 = (-0.60470 + 0.51708)/2.0
 sum -  nocc_ = 0.01964033
 On Iteration in Bisection 2
 a: 0.01964  b:-0.50000

 -0.32426 = (-0.60470 + -0.04381)/2.0
 sum -  nocc_ = -0.01155489
 On Iteration in Bisection 3
 a: -0.01155  b:-0.50000

 -0.18403 = (-0.32426 + -0.04381)/2.0
 sum -  nocc_ = 0.00089654
 On Iteration in Bisection 4
 a: 0.00090  b:-0.01155

 -0.25414 = (-0.32426 + -0.18403)/2.0
 sum -  nocc_ = -0.00320203
 On Iteration in Bisection 5
 a: -0.00320  b:-0.01155

 -0.21909 = (-0.25414 + -0.18403)/2.0
 sum -  nocc_ = -0.00099780
 On Iteration in Bisection 6
 a: -0.00100  b:-0.00320

 -0.20156 = (-0.21909 + -0.18403)/2.0
 sum -  nocc_ = -0.00004878
 On Iteration in Bisection 7
 a: -0.00005  b:-0.00100

 -0.19280 = (-0.20156 + -0.18403)/2.0
 sum -  nocc_ = 0.00041989
 On Iteration in Bisection 8
 a: 0.00042  b:-0.00005

 -0.19718 = (-0.20156 + -0.19280)/2.0
 sum -  nocc_ = 0.00018511
 On Iteration in Bisection 9
 a: 0.00019  b:-0.00005

 -0.19937 = (-0.20156 + -0.19718)/2.0
 sum -  nocc_ = 0.00006813
 On Iteration in Bisection 10
 a: 0.00007  b:-0.00005

 -0.20046 = (-0.20156 + -0.19937)/2.0
 sum -  nocc_ = 0.00000967
 On Iteration in Bisection 11
 a: 0.00001  b:-0.00005

 -0.20101 = (-0.20156 + -0.20046)/2.0
 sum -  nocc_ = -0.00001955
 On Iteration in Bisection 12
 a: -0.00002  b:-0.00005

 -0.20074 = (-0.20101 + -0.20046)/2.0
 sum -  nocc_ = -0.00000494
 On Iteration in Bisection 13
 a: -0.00000  b:-0.00002

 -0.20060 = (-0.20074 + -0.20046)/2.0
 sum -  nocc_ = 0.00000236
 On Iteration in Bisection 14
 a: 0.00000  b:-0.00000

 -0.20067 = (-0.20074 + -0.20060)/2.0
 sum -  nocc_ = -0.00000129
 On Iteration in Bisection 15
 a: -0.00000  b:-0.00000

 -0.20064 = (-0.20067 + -0.20060)/2.0
 sum -  nocc_ = 0.00000054
 On Iteration in Bisection 16
 a: 0.00000  b:-0.00000

 -0.20065 = (-0.20067 + -0.20064)/2.0
 sum -  nocc_ = -0.00000038
 On Iteration in Bisection 17
 a: -0.00000  b:-0.00000

 -0.20064 = (-0.20065 + -0.20064)/2.0
 sum -  nocc_ = 0.00000008
 On Iteration in Bisection 18
 a: 0.00000  b:-0.00000

 -0.20065 = (-0.20065 + -0.20064)/2.0
 sum -  nocc_ = -0.00000015
 On Iteration in Bisection 19
 a: -0.00000  b:-0.00000

 -0.20065 = (-0.20065 + -0.20064)/2.0
 sum -  nocc_ = -0.00000003
 On Iteration in Bisection 20
 a: -0.00000  b:-0.00000

 -0.20065 = (-0.20065 + -0.20064)/2.0
 sum -  nocc_ = 0.00000002
 On Iteration in Bisection 21
 a: 0.00000  b:-0.00000

 -0.20065 = (-0.20065 + -0.20065)/2.0
 sum -  nocc_ = -0.00000000
 ef = -0.20065 sum = 1.00000 

 Iter: 9  T:    20000.000  val:-0.200646  sumni 0.00000
 ne = 1.0000

 iter:10  failiter:10  energy:     -1.880138864757  total:     -1.124171423914  error:      0.000000000773
 In Bisection function HOMO = -0.605  LUMO =  3.882

 1.63887 = (-0.60470 + 3.88245)/2.0
 sum -  nocc_ = 4.99681364
 On Iteration in Bisection 0
 a: 4.99681  b:-0.50000

 0.51708 = (-0.60470 + 1.63887)/2.0
 sum -  nocc_ = 1.67384212
 On Iteration in Bisection 1
 a: 1.67384  b:-0.50000

 -0.04381 = (-0.60470 + 0.51708)/2.0
 sum -  nocc_ = 0.01964033
 On Iteration in Bisection 2
 a: 0.01964  b:-0.50000

 -0.32426 = (-0.60470 + -0.04381)/2.0
 sum -  nocc_ = -0.01155489
 On Iteration in Bisection 3
 a: -0.01155  b:-0.50000

 -0.18403 = (-0.32426 + -0.04381)/2.0
 sum -  nocc_ = 0.00089654
 On Iteration in Bisection 4
 a: 0.00090  b:-0.01155

 -0.25414 = (-0.32426 + -0.18403)/2.0
 sum -  nocc_ = -0.00320203
 On Iteration in Bisection 5
 a: -0.00320  b:-0.01155

 -0.21909 = (-0.25414 + -0.18403)/2.0
 sum -  nocc_ = -0.00099780
 On Iteration in Bisection 6
 a: -0.00100  b:-0.00320

 -0.20156 = (-0.21909 + -0.18403)/2.0
 sum -  nocc_ = -0.00004878
 On Iteration in Bisection 7
 a: -0.00005  b:-0.00100

 -0.19280 = (-0.20156 + -0.18403)/2.0
 sum -  nocc_ = 0.00041989
 On Iteration in Bisection 8
 a: 0.00042  b:-0.00005

 -0.19718 = (-0.20156 + -0.19280)/2.0
 sum -  nocc_ = 0.00018511
 On Iteration in Bisection 9
 a: 0.00019  b:-0.00005

 -0.19937 = (-0.20156 + -0.19718)/2.0
 sum -  nocc_ = 0.00006813
 On Iteration in Bisection 10
 a: 0.00007  b:-0.00005

 -0.20046 = (-0.20156 + -0.19937)/2.0
 sum -  nocc_ = 0.00000967
 On Iteration in Bisection 11
 a: 0.00001  b:-0.00005

 -0.20101 = (-0.20156 + -0.20046)/2.0
 sum -  nocc_ = -0.00001955
 On Iteration in Bisection 12
 a: -0.00002  b:-0.00005

 -0.20074 = (-0.20101 + -0.20046)/2.0
 sum -  nocc_ = -0.00000494
 On Iteration in Bisection 13
 a: -0.00000  b:-0.00002

 -0.20060 = (-0.20074 + -0.20046)/2.0
 sum -  nocc_ = 0.00000236
 On Iteration in Bisection 14
 a: 0.00000  b:-0.00000

 -0.20067 = (-0.20074 + -0.20060)/2.0
 sum -  nocc_ = -0.00000129
 On Iteration in Bisection 15
 a: -0.00000  b:-0.00000

 -0.20064 = (-0.20067 + -0.20060)/2.0
 sum -  nocc_ = 0.00000054
 On Iteration in Bisection 16
 a: 0.00000  b:-0.00000

 -0.20065 = (-0.20067 + -0.20064)/2.0
 sum -  nocc_ = -0.00000038
 On Iteration in Bisection 17
 a: -0.00000  b:-0.00000

 -0.20064 = (-0.20065 + -0.20064)/2.0
 sum -  nocc_ = 0.00000008
 On Iteration in Bisection 18
 a: 0.00000  b:-0.00000

 -0.20065 = (-0.20065 + -0.20064)/2.0
 sum -  nocc_ = -0.00000015
 On Iteration in Bisection 19
 a: -0.00000  b:-0.00000

 -0.20065 = (-0.20065 + -0.20064)/2.0
 sum -  nocc_ = -0.00000003
 On Iteration in Bisection 20
 a: -0.00000  b:-0.00000

 -0.20065 = (-0.20065 + -0.20064)/2.0
 sum -  nocc_ = 0.00000002
 On Iteration in Bisection 21
 a: 0.00000  b:-0.00000

 -0.20065 = (-0.20065 + -0.20065)/2.0
 sum -  nocc_ = -0.00000000
 ef = -0.20065 sum = 1.00000 

 Iter: 10  T:    20000.000  val:-0.200646  sumni 0.00000
 ne = 1.0000

 iter:11  failiter:11  energy:     -1.880138864097  total:     -1.124171423255  error:      0.000000000660
 In Bisection function HOMO = -0.605  LUMO =  3.882

 1.63887 = (-0.60470 + 3.88245)/2.0
 sum -  nocc_ = 4.99681364
 On Iteration in Bisection 0
 a: 4.99681  b:-0.50000

 0.51708 = (-0.60470 + 1.63887)/2.0
 sum -  nocc_ = 1.67384213
 On Iteration in Bisection 1
 a: 1.67384  b:-0.50000

 -0.04381 = (-0.60470 + 0.51708)/2.0
 sum -  nocc_ = 0.01964033
 On Iteration in Bisection 2
 a: 0.01964  b:-0.50000

 -0.32426 = (-0.60470 + -0.04381)/2.0
 sum -  nocc_ = -0.01155489
 On Iteration in Bisection 3
 a: -0.01155  b:-0.50000

 -0.18403 = (-0.32426 + -0.04381)/2.0
 sum -  nocc_ = 0.00089654
 On Iteration in Bisection 4
 a: 0.00090  b:-0.01155

 -0.25414 = (-0.32426 + -0.18403)/2.0
 sum -  nocc_ = -0.00320203
 On Iteration in Bisection 5
 a: -0.00320  b:-0.01155

 -0.21909 = (-0.25414 + -0.18403)/2.0
 sum -  nocc_ = -0.00099780
 On Iteration in Bisection 6
 a: -0.00100  b:-0.00320

 -0.20156 = (-0.21909 + -0.18403)/2.0
 sum -  nocc_ = -0.00004878
 On Iteration in Bisection 7
 a: -0.00005  b:-0.00100

 -0.19280 = (-0.20156 + -0.18403)/2.0
 sum -  nocc_ = 0.00041989
 On Iteration in Bisection 8
 a: 0.00042  b:-0.00005

 -0.19718 = (-0.20156 + -0.19280)/2.0
 sum -  nocc_ = 0.00018511
 On Iteration in Bisection 9
 a: 0.00019  b:-0.00005

 -0.19937 = (-0.20156 + -0.19718)/2.0
 sum -  nocc_ = 0.00006813
 On Iteration in Bisection 10
 a: 0.00007  b:-0.00005

 -0.20046 = (-0.20156 + -0.19937)/2.0
 sum -  nocc_ = 0.00000967
 On Iteration in Bisection 11
 a: 0.00001  b:-0.00005

 -0.20101 = (-0.20156 + -0.20046)/2.0
 sum -  nocc_ = -0.00001955
 On Iteration in Bisection 12
 a: -0.00002  b:-0.00005

 -0.20074 = (-0.20101 + -0.20046)/2.0
 sum -  nocc_ = -0.00000494
 On Iteration in Bisection 13
 a: -0.00000  b:-0.00002

 -0.20060 = (-0.20074 + -0.20046)/2.0
 sum -  nocc_ = 0.00000236
 On Iteration in Bisection 14
 a: 0.00000  b:-0.00000

 -0.20067 = (-0.20074 + -0.20060)/2.0
 sum -  nocc_ = -0.00000129
 On Iteration in Bisection 15
 a: -0.00000  b:-0.00000

 -0.20064 = (-0.20067 + -0.20060)/2.0
 sum -  nocc_ = 0.00000054
 On Iteration in Bisection 16
 a: 0.00000  b:-0.00000

 -0.20065 = (-0.20067 + -0.20064)/2.0
 sum -  nocc_ = -0.00000038
 On Iteration in Bisection 17
 a: -0.00000  b:-0.00000

 -0.20064 = (-0.20065 + -0.20064)/2.0
 sum -  nocc_ = 0.00000008
 On Iteration in Bisection 18
 a: 0.00000  b:-0.00000

 -0.20065 = (-0.20065 + -0.20064)/2.0
 sum -  nocc_ = -0.00000015
 On Iteration in Bisection 19
 a: -0.00000  b:-0.00000

 -0.20065 = (-0.20065 + -0.20064)/2.0
 sum -  nocc_ = -0.00000003
 On Iteration in Bisection 20
 a: -0.00000  b:-0.00000

 -0.20065 = (-0.20065 + -0.20064)/2.0
 sum -  nocc_ = 0.00000002
 On Iteration in Bisection 21
 a: 0.00000  b:-0.00000

 -0.20065 = (-0.20065 + -0.20065)/2.0
 sum -  nocc_ = -0.00000000
 ef = -0.20065 sum = 1.00000 

 Iter: 11  T:    20000.000  val:-0.200646  sumni 0.00000
 ne = 1.0000

 iter:12  failiter:12  energy:     -1.880138863894  total:     -1.124171423051  error:      0.000000000204
 In Bisection function HOMO = -0.605  LUMO =  3.882

 1.63887 = (-0.60470 + 3.88245)/2.0
 sum -  nocc_ = 4.99681364
 On Iteration in Bisection 0
 a: 4.99681  b:-0.50000

 0.51708 = (-0.60470 + 1.63887)/2.0
 sum -  nocc_ = 1.67384213
 On Iteration in Bisection 1
 a: 1.67384  b:-0.50000

 -0.04381 = (-0.60470 + 0.51708)/2.0
 sum -  nocc_ = 0.01964033
 On Iteration in Bisection 2
 a: 0.01964  b:-0.50000

 -0.32426 = (-0.60470 + -0.04381)/2.0
 sum -  nocc_ = -0.01155489
 On Iteration in Bisection 3
 a: -0.01155  b:-0.50000

 -0.18403 = (-0.32426 + -0.04381)/2.0
 sum -  nocc_ = 0.00089654
 On Iteration in Bisection 4
 a: 0.00090  b:-0.01155

 -0.25414 = (-0.32426 + -0.18403)/2.0
 sum -  nocc_ = -0.00320203
 On Iteration in Bisection 5
 a: -0.00320  b:-0.01155

 -0.21909 = (-0.25414 + -0.18403)/2.0
 sum -  nocc_ = -0.00099780
 On Iteration in Bisection 6
 a: -0.00100  b:-0.00320

 -0.20156 = (-0.21909 + -0.18403)/2.0
 sum -  nocc_ = -0.00004878
 On Iteration in Bisection 7
 a: -0.00005  b:-0.00100

 -0.19280 = (-0.20156 + -0.18403)/2.0
 sum -  nocc_ = 0.00041989
 On Iteration in Bisection 8
 a: 0.00042  b:-0.00005

 -0.19718 = (-0.20156 + -0.19280)/2.0
 sum -  nocc_ = 0.00018511
 On Iteration in Bisection 9
 a: 0.00019  b:-0.00005

 -0.19937 = (-0.20156 + -0.19718)/2.0
 sum -  nocc_ = 0.00006813
 On Iteration in Bisection 10
 a: 0.00007  b:-0.00005

 -0.20046 = (-0.20156 + -0.19937)/2.0
 sum -  nocc_ = 0.00000967
 On Iteration in Bisection 11
 a: 0.00001  b:-0.00005

 -0.20101 = (-0.20156 + -0.20046)/2.0
 sum -  nocc_ = -0.00001955
 On Iteration in Bisection 12
 a: -0.00002  b:-0.00005

 -0.20074 = (-0.20101 + -0.20046)/2.0
 sum -  nocc_ = -0.00000494
 On Iteration in Bisection 13
 a: -0.00000  b:-0.00002

 -0.20060 = (-0.20074 + -0.20046)/2.0
 sum -  nocc_ = 0.00000236
 On Iteration in Bisection 14
 a: 0.00000  b:-0.00000

 -0.20067 = (-0.20074 + -0.20060)/2.0
 sum -  nocc_ = -0.00000129
 On Iteration in Bisection 15
 a: -0.00000  b:-0.00000

 -0.20064 = (-0.20067 + -0.20060)/2.0
 sum -  nocc_ = 0.00000054
 On Iteration in Bisection 16
 a: 0.00000  b:-0.00000

 -0.20065 = (-0.20067 + -0.20064)/2.0
 sum -  nocc_ = -0.00000038
 On Iteration in Bisection 17
 a: -0.00000  b:-0.00000

 -0.20064 = (-0.20065 + -0.20064)/2.0
 sum -  nocc_ = 0.00000008
 On Iteration in Bisection 18
 a: 0.00000  b:-0.00000

 -0.20065 = (-0.20065 + -0.20064)/2.0
 sum -  nocc_ = -0.00000015
 On Iteration in Bisection 19
 a: -0.00000  b:-0.00000

 -0.20065 = (-0.20065 + -0.20064)/2.0
 sum -  nocc_ = -0.00000003
 On Iteration in Bisection 20
 a: -0.00000  b:-0.00000

 -0.20065 = (-0.20065 + -0.20064)/2.0
 sum -  nocc_ = 0.00000002
 On Iteration in Bisection 21
 a: 0.00000  b:-0.00000

 -0.20065 = (-0.20065 + -0.20065)/2.0
 sum -  nocc_ = -0.00000000
 ef = -0.20065 sum = 1.00000 

 Iter: 12  T:    20000.000  val:-0.200646  sumni 0.00000
 ne = 1.0000

 iter:13  failiter:13  energy:     -1.880138863843  total:     -1.124171423000  error:      0.000000000051
 In Bisection function HOMO = -0.605  LUMO =  3.882

 1.63887 = (-0.60470 + 3.88245)/2.0
 sum -  nocc_ = 4.99681364
 On Iteration in Bisection 0
 a: 4.99681  b:-0.50000

 0.51708 = (-0.60470 + 1.63887)/2.0
 sum -  nocc_ = 1.67384213
 On Iteration in Bisection 1
 a: 1.67384  b:-0.50000

 -0.04381 = (-0.60470 + 0.51708)/2.0
 sum -  nocc_ = 0.01964033
 On Iteration in Bisection 2
 a: 0.01964  b:-0.50000

 -0.32426 = (-0.60470 + -0.04381)/2.0
 sum -  nocc_ = -0.01155489
 On Iteration in Bisection 3
 a: -0.01155  b:-0.50000

 -0.18403 = (-0.32426 + -0.04381)/2.0
 sum -  nocc_ = 0.00089654
 On Iteration in Bisection 4
 a: 0.00090  b:-0.01155

 -0.25414 = (-0.32426 + -0.18403)/2.0
 sum -  nocc_ = -0.00320203
 On Iteration in Bisection 5
 a: -0.00320  b:-0.01155

 -0.21909 = (-0.25414 + -0.18403)/2.0
 sum -  nocc_ = -0.00099780
 On Iteration in Bisection 6
 a: -0.00100  b:-0.00320

 -0.20156 = (-0.21909 + -0.18403)/2.0
 sum -  nocc_ = -0.00004878
 On Iteration in Bisection 7
 a: -0.00005  b:-0.00100

 -0.19280 = (-0.20156 + -0.18403)/2.0
 sum -  nocc_ = 0.00041989
 On Iteration in Bisection 8
 a: 0.00042  b:-0.00005

 -0.19718 = (-0.20156 + -0.19280)/2.0
 sum -  nocc_ = 0.00018511
 On Iteration in Bisection 9
 a: 0.00019  b:-0.00005

 -0.19937 = (-0.20156 + -0.19718)/2.0
 sum -  nocc_ = 0.00006813
 On Iteration in Bisection 10
 a: 0.00007  b:-0.00005

 -0.20046 = (-0.20156 + -0.19937)/2.0
 sum -  nocc_ = 0.00000967
 On Iteration in Bisection 11
 a: 0.00001  b:-0.00005

 -0.20101 = (-0.20156 + -0.20046)/2.0
 sum -  nocc_ = -0.00001955
 On Iteration in Bisection 12
 a: -0.00002  b:-0.00005

 -0.20074 = (-0.20101 + -0.20046)/2.0
 sum -  nocc_ = -0.00000494
 On Iteration in Bisection 13
 a: -0.00000  b:-0.00002

 -0.20060 = (-0.20074 + -0.20046)/2.0
 sum -  nocc_ = 0.00000236
 On Iteration in Bisection 14
 a: 0.00000  b:-0.00000

 -0.20067 = (-0.20074 + -0.20060)/2.0
 sum -  nocc_ = -0.00000129
 On Iteration in Bisection 15
 a: -0.00000  b:-0.00000

 -0.20064 = (-0.20067 + -0.20060)/2.0
 sum -  nocc_ = 0.00000054
 On Iteration in Bisection 16
 a: 0.00000  b:-0.00000

 -0.20065 = (-0.20067 + -0.20064)/2.0
 sum -  nocc_ = -0.00000038
 On Iteration in Bisection 17
 a: -0.00000  b:-0.00000

 -0.20064 = (-0.20065 + -0.20064)/2.0
 sum -  nocc_ = 0.00000008
 On Iteration in Bisection 18
 a: 0.00000  b:-0.00000

 -0.20065 = (-0.20065 + -0.20064)/2.0
 sum -  nocc_ = -0.00000015
 On Iteration in Bisection 19
 a: -0.00000  b:-0.00000

 -0.20065 = (-0.20065 + -0.20064)/2.0
 sum -  nocc_ = -0.00000003
 On Iteration in Bisection 20
 a: -0.00000  b:-0.00000

 -0.20065 = (-0.20065 + -0.20064)/2.0
 sum -  nocc_ = 0.00000002
 On Iteration in Bisection 21
 a: 0.00000  b:-0.00000

 -0.20065 = (-0.20065 + -0.20065)/2.0
 sum -  nocc_ = -0.00000000
 ef = -0.20065 sum = 1.00000 

 Iter: 13  T:    20000.000  val:-0.200646  sumni 0.00000
 ne = 1.0000

 iter:14  failiter:14  energy:     -1.880138863832  total:     -1.124171422989  error:      0.000000000011
 In Bisection function HOMO = -0.605  LUMO =  3.882

 1.63887 = (-0.60470 + 3.88245)/2.0
 sum -  nocc_ = 4.99681364
 On Iteration in Bisection 0
 a: 4.99681  b:-0.50000

 0.51708 = (-0.60470 + 1.63887)/2.0
 sum -  nocc_ = 1.67384213
 On Iteration in Bisection 1
 a: 1.67384  b:-0.50000

 -0.04381 = (-0.60470 + 0.51708)/2.0
 sum -  nocc_ = 0.01964033
 On Iteration in Bisection 2
 a: 0.01964  b:-0.50000

 -0.32426 = (-0.60470 + -0.04381)/2.0
 sum -  nocc_ = -0.01155489
 On Iteration in Bisection 3
 a: -0.01155  b:-0.50000

 -0.18403 = (-0.32426 + -0.04381)/2.0
 sum -  nocc_ = 0.00089654
 On Iteration in Bisection 4
 a: 0.00090  b:-0.01155

 -0.25414 = (-0.32426 + -0.18403)/2.0
 sum -  nocc_ = -0.00320203
 On Iteration in Bisection 5
 a: -0.00320  b:-0.01155

 -0.21909 = (-0.25414 + -0.18403)/2.0
 sum -  nocc_ = -0.00099780
 On Iteration in Bisection 6
 a: -0.00100  b:-0.00320

 -0.20156 = (-0.21909 + -0.18403)/2.0
 sum -  nocc_ = -0.00004878
 On Iteration in Bisection 7
 a: -0.00005  b:-0.00100

 -0.19280 = (-0.20156 + -0.18403)/2.0
 sum -  nocc_ = 0.00041989
 On Iteration in Bisection 8
 a: 0.00042  b:-0.00005

 -0.19718 = (-0.20156 + -0.19280)/2.0
 sum -  nocc_ = 0.00018511
 On Iteration in Bisection 9
 a: 0.00019  b:-0.00005

 -0.19937 = (-0.20156 + -0.19718)/2.0
 sum -  nocc_ = 0.00006813
 On Iteration in Bisection 10
 a: 0.00007  b:-0.00005

 -0.20046 = (-0.20156 + -0.19937)/2.0
 sum -  nocc_ = 0.00000967
 On Iteration in Bisection 11
 a: 0.00001  b:-0.00005

 -0.20101 = (-0.20156 + -0.20046)/2.0
 sum -  nocc_ = -0.00001955
 On Iteration in Bisection 12
 a: -0.00002  b:-0.00005

 -0.20074 = (-0.20101 + -0.20046)/2.0
 sum -  nocc_ = -0.00000494
 On Iteration in Bisection 13
 a: -0.00000  b:-0.00002

 -0.20060 = (-0.20074 + -0.20046)/2.0
 sum -  nocc_ = 0.00000236
 On Iteration in Bisection 14
 a: 0.00000  b:-0.00000

 -0.20067 = (-0.20074 + -0.20060)/2.0
 sum -  nocc_ = -0.00000129
 On Iteration in Bisection 15
 a: -0.00000  b:-0.00000

 -0.20064 = (-0.20067 + -0.20060)/2.0
 sum -  nocc_ = 0.00000054
 On Iteration in Bisection 16
 a: 0.00000  b:-0.00000

 -0.20065 = (-0.20067 + -0.20064)/2.0
 sum -  nocc_ = -0.00000038
 On Iteration in Bisection 17
 a: -0.00000  b:-0.00000

 -0.20064 = (-0.20065 + -0.20064)/2.0
 sum -  nocc_ = 0.00000008
 On Iteration in Bisection 18
 a: 0.00000  b:-0.00000

 -0.20065 = (-0.20065 + -0.20064)/2.0
 sum -  nocc_ = -0.00000015
 On Iteration in Bisection 19
 a: -0.00000  b:-0.00000

 -0.20065 = (-0.20065 + -0.20064)/2.0
 sum -  nocc_ = -0.00000003
 On Iteration in Bisection 20
 a: -0.00000  b:-0.00000

 -0.20065 = (-0.20065 + -0.20064)/2.0
 sum -  nocc_ = 0.00000002
 On Iteration in Bisection 21
 a: 0.00000  b:-0.00000

 -0.20065 = (-0.20065 + -0.20065)/2.0
 sum -  nocc_ = -0.00000000
 ef = -0.20065 sum = 1.00000 

 Iter: 14  T:    20000.000  val:-0.200646  sumni 0.00000
 ne = 1.0000

 iter:15  failiter:15  energy:     -1.880138863829  total:     -1.124171422986  error:      0.000000000002
 In Bisection function HOMO = -0.605  LUMO =  3.882

 1.63887 = (-0.60470 + 3.88245)/2.0
 sum -  nocc_ = 4.99681364
 On Iteration in Bisection 0
 a: 4.99681  b:-0.50000

 0.51708 = (-0.60470 + 1.63887)/2.0
 sum -  nocc_ = 1.67384213
 On Iteration in Bisection 1
 a: 1.67384  b:-0.50000

 -0.04381 = (-0.60470 + 0.51708)/2.0
 sum -  nocc_ = 0.01964033
 On Iteration in Bisection 2
 a: 0.01964  b:-0.50000

 -0.32426 = (-0.60470 + -0.04381)/2.0
 sum -  nocc_ = -0.01155489
 On Iteration in Bisection 3
 a: -0.01155  b:-0.50000

 -0.18403 = (-0.32426 + -0.04381)/2.0
 sum -  nocc_ = 0.00089654
 On Iteration in Bisection 4
 a: 0.00090  b:-0.01155

 -0.25414 = (-0.32426 + -0.18403)/2.0
 sum -  nocc_ = -0.00320203
 On Iteration in Bisection 5
 a: -0.00320  b:-0.01155

 -0.21909 = (-0.25414 + -0.18403)/2.0
 sum -  nocc_ = -0.00099780
 On Iteration in Bisection 6
 a: -0.00100  b:-0.00320

 -0.20156 = (-0.21909 + -0.18403)/2.0
 sum -  nocc_ = -0.00004878
 On Iteration in Bisection 7
 a: -0.00005  b:-0.00100

 -0.19280 = (-0.20156 + -0.18403)/2.0
 sum -  nocc_ = 0.00041989
 On Iteration in Bisection 8
 a: 0.00042  b:-0.00005

 -0.19718 = (-0.20156 + -0.19280)/2.0
 sum -  nocc_ = 0.00018511
 On Iteration in Bisection 9
 a: 0.00019  b:-0.00005

 -0.19937 = (-0.20156 + -0.19718)/2.0
 sum -  nocc_ = 0.00006813
 On Iteration in Bisection 10
 a: 0.00007  b:-0.00005

 -0.20046 = (-0.20156 + -0.19937)/2.0
 sum -  nocc_ = 0.00000967
 On Iteration in Bisection 11
 a: 0.00001  b:-0.00005

 -0.20101 = (-0.20156 + -0.20046)/2.0
 sum -  nocc_ = -0.00001955
 On Iteration in Bisection 12
 a: -0.00002  b:-0.00005

 -0.20074 = (-0.20101 + -0.20046)/2.0
 sum -  nocc_ = -0.00000494
 On Iteration in Bisection 13
 a: -0.00000  b:-0.00002

 -0.20060 = (-0.20074 + -0.20046)/2.0
 sum -  nocc_ = 0.00000236
 On Iteration in Bisection 14
 a: 0.00000  b:-0.00000

 -0.20067 = (-0.20074 + -0.20060)/2.0
 sum -  nocc_ = -0.00000129
 On Iteration in Bisection 15
 a: -0.00000  b:-0.00000

 -0.20064 = (-0.20067 + -0.20060)/2.0
 sum -  nocc_ = 0.00000054
 On Iteration in Bisection 16
 a: 0.00000  b:-0.00000

 -0.20065 = (-0.20067 + -0.20064)/2.0
 sum -  nocc_ = -0.00000038
 On Iteration in Bisection 17
 a: -0.00000  b:-0.00000

 -0.20064 = (-0.20065 + -0.20064)/2.0
 sum -  nocc_ = 0.00000008
 On Iteration in Bisection 18
 a: 0.00000  b:-0.00000

 -0.20065 = (-0.20065 + -0.20064)/2.0
 sum -  nocc_ = -0.00000015
 On Iteration in Bisection 19
 a: -0.00000  b:-0.00000

 -0.20065 = (-0.20065 + -0.20064)/2.0
 sum -  nocc_ = -0.00000003
 On Iteration in Bisection 20
 a: -0.00000  b:-0.00000

 -0.20065 = (-0.20065 + -0.20064)/2.0
 sum -  nocc_ = 0.00000002
 On Iteration in Bisection 21
 a: 0.00000  b:-0.00000

 -0.20065 = (-0.20065 + -0.20065)/2.0
 sum -  nocc_ = -0.00000000
 ef = -0.20065 sum = 1.00000 

 Iter: 15  T:    20000.000  val:-0.200646  sumni 0.00000
 ne = 1.0000

 iter:16  failiter:16  energy:     -1.880138863829  total:     -1.124171422986  error:      0.000000000001
 FTHFEnergy =    -1.124171
 FD_dis[0] = 0.99830761 with -0.604702 eig value
 FD_dis[1] = 0.00166692 with 0.204373 eig value
 FD_dis[2] = 0.00002546 with 0.469308 eig value
 FD_dis[3] = 0.00000001 with 0.967032 eig value
 FD_dis[4] = 0.00000000 with 1.297140 eig value
 FD_dis[5] = 0.00000000 with 1.297140 eig value
 FD_dis[6] = 0.00000000 with 1.993920 eig value
 FD_dis[7] = 0.00000000 with 2.070067 eig value
 FD_dis[8] = 0.00000000 with 2.070067 eig value
 FD_dis[9] = 0.00000000 with 3.882446 eig value
*** PSI4 exiting successfully. Buy a developer a beer!
