    -----------------------------------------------------------------------
          PSI4: An Open-Source Ab Initio Electronic Structure Package
                              PSI 4.0 Driver

               Git: Rev {master} 556e8139d3cfa1f96ccffe2cdf22cc56a185d2b2

    J. M. Turney, A. C. Simmonett, R. M. Parrish, E. G. Hohenstein,
    F. A. Evangelista, J. T. Fermann, B. J. Mintz, L. A. Burns, J. J. Wilke,
    M. L. Abrams, N. J. Russ, M. L. Leininger, C. L. Janssen, E. T. Seidl,
    W. D. Allen, H. F. Schaefer, R. A. King, E. F. Valeev, C. D. Sherrill,
    and T. D. Crawford, WIREs Comput. Mol. Sci. 2, 556-565 (2012)
    (doi: 10.1002/wcms.93)

                         Additional Contributions by
    A. E. DePrince, M. Saitow, U. Bozkaya, A. Yu. Sokolov
    -----------------------------------------------------------------------

    Process ID:  12489
    PSI4DATADIR: /Users/kevinhannon/Programs/psi4cmake/psi4/lib
    Memory level set to 256.000 MB

  ==> Input File <==

--------------------------------------------------------------------------

# PYTHONPATH must include directory above plugin directory.
#     Define either externally or here, then import plugin.
sys.path.insert(0, '/Users/kevinhannon/Programs/Quantum_Programs/Quantum-Programs/GS/')
import scf

molecule {
0 1
O 0.00  0.00   0.00
H  0.757 0.586 0.00
H -0.757 0.586 0.00
symmetry c1
units angstrom
}


set {
  basis cc-pvdz
  reference rhf
  scf_type  pk
}

set scf {
  print 1
  DO_FTHF true
  MAX_ITER 200
  MAX_TEMP 500 
  TEMP_INCREMENT 0
  bisect  true
  bisect_iter  40
}
energy('rhf')
energy('scf')

scf.exampleFN()

--------------------------------------------------------------------------

*** tstart() called on Kevins-MacBook-Pro.local
*** at Sat Apr 11 12:19:58 2015

/Users/kevinhannon/Programs/Quantum_Programs/Quantum-Programs/GS/scf/scf.so loaded.

*** tstart() called on Kevins-MacBook-Pro.local
*** at Sat Apr 11 12:19:58 2015


         ---------------------------------------------------------
                                   SCF
            by Justin Turney, Rob Parrish, and Andy Simmonett
                              RHF Reference
                        1 Threads,    256 MiB Core
         ---------------------------------------------------------

  ==> Geometry <==

    Molecular point group: c1
    Full point group: C2v

    Geometry (in Angstrom), charge = 0, multiplicity = 1:

       Center              X                  Y                   Z       
    ------------   -----------------  -----------------  -----------------
           O          0.000000000000     0.000000000000    -0.065582115738
           H          0.757000000000     0.000000000000     0.520417884262
           H         -0.757000000000     0.000000000000     0.520417884262

  Running in c1 symmetry.

  Rotational constants: A =     27.42405  B =     14.59451  C =      9.52533 [cm^-1]
  Rotational constants: A = 822152.21379  B = 437532.48216  C = 285562.17279 [MHz]
  Nuclear repulsion =    9.193913120142016

  Charge       = 0
  Multiplicity = 1
  Electrons    = 10
  Nalpha       = 5
  Nbeta        = 5

  ==> Algorithm <==

  SCF Algorithm Type is PK.
  DIIS enabled.
  MOM disabled.
  Fractional occupation disabled.
  Guess Type is CORE.
  Energy threshold   = 1.00e-06
  Density threshold  = 1.00e-06
  Integral threshold = 0.00e+00

  ==> Primary Basis <==

  Basis Set: CC-PVDZ
    Number of shells: 12
    Number of basis function: 24
    Number of Cartesian functions: 25
    Spherical Harmonics?: true
    Max angular momentum: 2

  ==> Pre-Iterations <==

   -------------------------------------------------------
    Irrep   Nso     Nmo     Nalpha   Nbeta   Ndocc  Nsocc
   -------------------------------------------------------
     A         24      24       0       0       0       0
   -------------------------------------------------------
    Total      24      24       5       5       5       0
   -------------------------------------------------------

  Starting with a DF guess...

 OEINTS: Overlap, kinetic, potential, dipole, and quadrupole integrals
         stored in file 35.

  ==> Integral Setup <==

  ==> DFJK: Density-Fitted J/K Matrices <==

    J tasked:                  Yes
    K tasked:                  Yes
    wK tasked:                  No
    OpenMP threads:              1
    Integrals threads:           1
    Memory (MB):               183
    Algorithm:                Core
    Integral Cache:           NONE
    Schwarz Cutoff:          1E-12
    Fitting Condition:       1E-12

   => Auxiliary Basis Set <=

  Basis Set: 
    Number of shells: 42
    Number of basis function: 116
    Number of Cartesian functions: 131
    Spherical Harmonics?: true
    Max angular momentum: 3

  Minimum eigenvalue in the overlap matrix is 3.4186788725E-02.
  Using Symmetric Orthogonalization.
  SCF Guess: Core (One-Electron) Hamiltonian.

  ==> Iterations <==

                           Total Energy        Delta E     RMS |[F,P]|

   @DF-RHF iter   1:   -68.87321695800941   -6.88732e+01   1.29464e-01 
   @DF-RHF iter   2:   -69.95177071677901   -1.07855e+00   1.05622e-01 DIIS
   @DF-RHF iter   3:   -75.73633685652352   -5.78457e+00   3.64036e-02 DIIS
   @DF-RHF iter   4:   -76.00161033220991   -2.65273e-01   9.87452e-03 DIIS
   @DF-RHF iter   5:   -76.02648767970076   -2.48773e-02   8.86605e-04 DIIS
   @DF-RHF iter   6:   -76.02673080945675   -2.43130e-04   3.90142e-04 DIIS
   @DF-RHF iter   7:   -76.02677105668033   -4.02472e-05   5.48139e-05 DIIS
   @DF-RHF iter   8:   -76.02677265828703   -1.60161e-06   1.83637e-05 DIIS
   @DF-RHF iter   9:   -76.02677274701401   -8.87270e-08   1.05801e-06 DIIS
   @DF-RHF iter  10:   -76.02677274774472   -7.30708e-10   3.78605e-07 DIIS

  DF guess converged.

  ==> Integral Setup <==

 MINTS: Wrapper to libmints.
   by Justin Turney

   Calculation information:
      Number of atoms:                   3
      Number of AO shells:              12
      Number of SO shells:              12
      Number of primitives:             32
      Number of atomic orbitals:        25
      Number of basis functions:        24

      Number of irreps:                  1
      Integral cutoff                 0.00e+00
      Number of functions per irrep: [  24 ]

 OEINTS: Overlap, kinetic, potential, dipole, and quadrupole integrals
         stored in file 35.

      Computing two-electron integrals...done
      Computed 21890 non-zero two-electron integrals.
        Stored in file 33.

	Batch   1 pq = [       0,     300] index = [             0,45150]
  ==> DiskJK: Disk-Based J/K Matrices <==

    J tasked:                  Yes
    K tasked:                  Yes
    wK tasked:                  No
    Memory (MB):               183
    Schwarz Cutoff:          1E-12

   @RHF iter  11:   -76.02679363212155   -2.08844e-05   6.94058e-06 DIIS
   @RHF iter  12:   -76.02679364438080   -1.22592e-08   1.12155e-06 DIIS
   @RHF iter  13:   -76.02679364476305   -3.82244e-10   2.34935e-07 DIIS

  ==> Post-Iterations <==

    Orbital Energies (a.u.)
    -----------------------

    Doubly Occupied:                                                      

       1A    -20.550436     2A     -1.336657     3A     -0.699261  
       4A     -0.566562     5A     -0.493141  

    Virtual:                                                              

       6A      0.185559     7A      0.256244     8A      0.789271  
       9A      0.854276    10A      1.163513    11A      1.200385  
      12A      1.253306    13A      1.444602    14A      1.476248  
      15A      1.674666    16A      1.867313    17A      1.934850  
      18A      2.452768    19A      2.490253    20A      3.285620  
      21A      3.338866    22A      3.510479    23A      3.865846  
      24A      4.147451  

    Final Occupation by Irrep:
              A 
    DOCC [     5 ]

  Energy converged.

  @RHF Final Energy:   -76.02679364476305

   => Energetics <=

    Nuclear Repulsion Energy =              9.1939131201420157
    One-Electron Energy =                -123.1492994953537874
    Two-Electron Energy =                  37.9285927304487416
    DFT Exchange-Correlation Energy =       0.0000000000000000
    Empirical Dispersion Energy =           0.0000000000000000
    PCM Polarization Energy =               0.0000000000000000
    EFP Energy =                            0.0000000000000000
    Total Energy =                        -76.0267936447630319

    Alert: EFP and PCM quantities not currently incorporated into SCF psivars.

Properties will be evaluated at   0.000000,   0.000000,   0.000000 Bohr
  ==> Properties <==


Properties computed using the SCF density matrix

  Nuclear Dipole Moment: (a.u.)
     X:     0.0000      Y:     0.0000      Z:     0.9754

  Electronic Dipole Moment: (a.u.)
     X:     0.0000      Y:     0.0000      Z:    -0.1664

  Dipole Moment: (a.u.)
     X:     0.0000      Y:     0.0000      Z:     0.8091     Total:     0.8091

  Dipole Moment: (Debye)
     X:     0.0000      Y:     0.0000      Z:     2.0564     Total:     2.0564


  Saving occupied orbitals to File 180.

*** tstop() called on Kevins-MacBook-Pro.local at Sat Apr 11 12:19:58 2015
Module time:
	user time   =       0.32 seconds =       0.01 minutes
	system time =       0.03 seconds =       0.00 minutes
	total time  =          0 seconds =       0.00 minutes
Total time:
	user time   =       0.34 seconds =       0.01 minutes
	system time =       0.04 seconds =       0.00 minutes
	total time  =          0 seconds =       0.00 minutes

*** tstart() called on Kevins-MacBook-Pro.local
*** at Sat Apr 11 12:19:59 2015


         ---------------------------------------------------------
                                   SCF
            by Justin Turney, Rob Parrish, and Andy Simmonett
                              RHF Reference
                        1 Threads,    256 MiB Core
         ---------------------------------------------------------

  ==> Geometry <==

    Molecular point group: c1
    Full point group: C2v

    Geometry (in Angstrom), charge = 0, multiplicity = 1:

       Center              X                  Y                   Z       
    ------------   -----------------  -----------------  -----------------
           O          0.000000000000     0.000000000000    -0.065582115738
           H          0.757000000000     0.000000000000     0.520417884262
           H         -0.757000000000     0.000000000000     0.520417884262

  Running in c1 symmetry.

  Rotational constants: A =     27.42405  B =     14.59451  C =      9.52533 [cm^-1]
  Rotational constants: A = 822152.21379  B = 437532.48216  C = 285562.17279 [MHz]
  Nuclear repulsion =    9.193913120142016

  Charge       = 0
  Multiplicity = 1
  Electrons    = 10
  Nalpha       = 5
  Nbeta        = 5

  ==> Algorithm <==

  SCF Algorithm Type is PK.
  DIIS enabled.
  MOM disabled.
  Fractional occupation disabled.
  Guess Type is CORE.
  Energy threshold   = 1.00e-08
  Density threshold  = 1.00e-08
  Integral threshold = 0.00e+00

  ==> Primary Basis <==

  Basis Set: CC-PVDZ
    Number of shells: 12
    Number of basis function: 24
    Number of Cartesian functions: 25
    Spherical Harmonics?: true
    Max angular momentum: 2

  ==> Pre-Iterations <==

   -------------------------------------------------------
    Irrep   Nso     Nmo     Nalpha   Nbeta   Ndocc  Nsocc
   -------------------------------------------------------
     A         24      24       0       0       0       0
   -------------------------------------------------------
    Total      24      24       5       5       5       0
   -------------------------------------------------------

  Starting with a DF guess...

 OEINTS: Overlap, kinetic, potential, dipole, and quadrupole integrals
         stored in file 35.

  ==> Integral Setup <==

  ==> DFJK: Density-Fitted J/K Matrices <==

    J tasked:                  Yes
    K tasked:                  Yes
    wK tasked:                  No
    OpenMP threads:              1
    Integrals threads:           1
    Memory (MB):               183
    Algorithm:                Core
    Integral Cache:           NONE
    Schwarz Cutoff:          1E-12
    Fitting Condition:       1E-12

   => Auxiliary Basis Set <=

  Basis Set: 
    Number of shells: 42
    Number of basis function: 116
    Number of Cartesian functions: 131
    Spherical Harmonics?: true
    Max angular momentum: 3

  Minimum eigenvalue in the overlap matrix is 3.4186788725E-02.
  Using Symmetric Orthogonalization.
  SCF Guess: Core (One-Electron) Hamiltonian.

  ==> Iterations <==

                           Total Energy        Delta E     RMS |[F,P]|

   @DF-RHF iter   1:   -68.87321695800941   -6.88732e+01   1.29464e-01 
   @DF-RHF iter   2:   -69.95177071677901   -1.07855e+00   1.05622e-01 DIIS
   @DF-RHF iter   3:   -75.73633685652352   -5.78457e+00   3.64036e-02 DIIS
   @DF-RHF iter   4:   -76.00161033220991   -2.65273e-01   9.87452e-03 DIIS
   @DF-RHF iter   5:   -76.02648767970076   -2.48773e-02   8.86605e-04 DIIS
   @DF-RHF iter   6:   -76.02673080945675   -2.43130e-04   3.90142e-04 DIIS
   @DF-RHF iter   7:   -76.02677105668033   -4.02472e-05   5.48139e-05 DIIS
   @DF-RHF iter   8:   -76.02677265828703   -1.60161e-06   1.83637e-05 DIIS
   @DF-RHF iter   9:   -76.02677274701401   -8.87270e-08   1.05801e-06 DIIS
   @DF-RHF iter  10:   -76.02677274774470   -7.30694e-10   3.78605e-07 DIIS
   @DF-RHF iter  11:   -76.02677274779217   -4.74643e-11   6.75392e-08 DIIS
   @DF-RHF iter  12:   -76.02677274779343   -1.26477e-12   4.79877e-09 DIIS

  DF guess converged.

  ==> Integral Setup <==

 MINTS: Wrapper to libmints.
   by Justin Turney

   Calculation information:
      Number of atoms:                   3
      Number of AO shells:              12
      Number of SO shells:              12
      Number of primitives:             32
      Number of atomic orbitals:        25
      Number of basis functions:        24

      Number of irreps:                  1
      Integral cutoff                 0.00e+00
      Number of functions per irrep: [  24 ]

 OEINTS: Overlap, kinetic, potential, dipole, and quadrupole integrals
         stored in file 35.

      Computing two-electron integrals...done
      Computed 21890 non-zero two-electron integrals.
        Stored in file 33.

	Batch   1 pq = [       0,     300] index = [             0,45150]
  ==> DiskJK: Disk-Based J/K Matrices <==

    J tasked:                  Yes
    K tasked:                  Yes
    wK tasked:                  No
    Memory (MB):               183
    Schwarz Cutoff:          1E-12

   @RHF iter  13:   -76.02679363213957   -2.08843e-05   6.93390e-06 DIIS
   @RHF iter  14:   -76.02679364438424   -1.22447e-08   1.11865e-06 DIIS
   @RHF iter  15:   -76.02679364476454   -3.80297e-10   2.18560e-07 DIIS
   @RHF iter  16:   -76.02679364477822   -1.36851e-11   6.33928e-08 DIIS
   @RHF iter  17:   -76.02679364477936   -1.13687e-12   2.56593e-08 DIIS
   @RHF iter  18:   -76.02679364477959   -2.27374e-13   2.35214e-09 DIIS

  ==> Post-Iterations <==

    Orbital Energies (a.u.)
    -----------------------

    Doubly Occupied:                                                      

       1A    -20.550438     2A     -1.336658     3A     -0.699262  
       4A     -0.566562     5A     -0.493142  

    Virtual:                                                              

       6A      0.185559     7A      0.256244     8A      0.789271  
       9A      0.854276    10A      1.163512    11A      1.200385  
      12A      1.253306    13A      1.444602    14A      1.476247  
      15A      1.674666    16A      1.867313    17A      1.934850  
      18A      2.452768    19A      2.490253    20A      3.285619  
      21A      3.338865    22A      3.510478    23A      3.865845  
      24A      4.147450  

    Final Occupation by Irrep:
              A 
    DOCC [     5 ]

  Energy converged.

  @RHF Final Energy:   -76.02679364477959

   => Energetics <=

    Nuclear Repulsion Energy =              9.1939131201420157
    One-Electron Energy =                -123.1492879797543338
    Two-Electron Energy =                  37.9285812148327182
    DFT Exchange-Correlation Energy =       0.0000000000000000
    Empirical Dispersion Energy =           0.0000000000000000
    PCM Polarization Energy =               0.0000000000000000
    EFP Energy =                            0.0000000000000000
    Total Energy =                        -76.0267936447796018

    Alert: EFP and PCM quantities not currently incorporated into SCF psivars.

Properties will be evaluated at   0.000000,   0.000000,   0.000000 Bohr
  ==> Properties <==


Properties computed using the SCF density matrix

  Nuclear Dipole Moment: (a.u.)
     X:     0.0000      Y:     0.0000      Z:     0.9754

  Electronic Dipole Moment: (a.u.)
     X:    -0.0000      Y:    -0.0000      Z:    -0.1664

  Dipole Moment: (a.u.)
     X:    -0.0000      Y:    -0.0000      Z:     0.8091     Total:     0.8091

  Dipole Moment: (Debye)
     X:    -0.0000      Y:    -0.0000      Z:     2.0564     Total:     2.0564


  Saving occupied orbitals to File 180.

*** tstop() called on Kevins-MacBook-Pro.local at Sat Apr 11 12:19:59 2015
Module time:
	user time   =       0.30 seconds =       0.01 minutes
	system time =       0.01 seconds =       0.00 minutes
	total time  =          0 seconds =       0.00 minutes
Total time:
	user time   =       0.65 seconds =       0.01 minutes
	system time =       0.05 seconds =       0.00 minutes
	total time  =          1 seconds =       0.02 minutes
Reading options from the SCF block
Calling plugin scf.so.
    Molecular point group: c1
    Full point group: C2v

    Geometry (in Angstrom), charge = 0, multiplicity = 1:

       Center              X                  Y                   Z       
    ------------   -----------------  -----------------  -----------------
           O          0.000000000000     0.000000000000    -0.065582115738
           H          0.757000000000     0.000000000000     0.520417884262
           H         -0.757000000000     0.000000000000     0.520417884262


    Nuclear repulsion energy:       9.19391312

  ## Overlap (Symmetry 0) ##
  Irrep: 1 Size: 24 x 24

                 1                   2                   3                   4                   5

    1     1.00000000000000    -0.21406265175603     0.19438415205281     0.00000000000000     0.00000000000000
    2    -0.21406265175603     1.00000000000000     0.70860732857704     0.00000000000000     0.00000000000000
    3     0.19438415205281     0.70860732857704     1.00000000000000     0.00000000000000     0.00000000000000
    4     0.00000000000000     0.00000000000000     0.00000000000000     1.00000000000000     0.00000000000000
    5     0.00000000000000     0.00000000000000     0.00000000000000     0.00000000000000     1.00000000000000
    6     0.00000000000000     0.00000000000000     0.00000000000000     0.00000000000000     0.00000000000000
    7    -0.00000000000000     0.00000000000000     0.00000000000000     0.50127148324600     0.00000000000000
    8     0.00000000000000     0.00000000000000     0.00000000000000     0.00000000000000     0.50127148324600
    9     0.00000000000000     0.00000000000000     0.00000000000000     0.00000000000000     0.00000000000000
   10     0.00000000000000     0.00000000000000     0.00000000000000    -0.00000000000000     0.00000000000000
   11     0.00000000000000     0.00000000000000     0.00000000000000     0.00000000000000    -0.00000000000000
   12     0.00000000000000     0.00000000000000     0.00000000000000     0.00000000000000     0.00000000000000
   13     0.00000000000000     0.00000000000000     0.00000000000000     0.00000000000000     0.00000000000000
   14     0.00000000000000     0.00000000000000     0.00000000000000     0.00000000000000     0.00000000000000
   15     0.05392296379400     0.27647639178065     0.49715907527040     0.17267850006787     0.22306761868835
   16     0.06972459883582     0.32546702212517     0.64802577198498     0.06497990610056     0.08394161931421
   17    -0.06794969908855    -0.24731324514202    -0.23973366466525    -0.01979163082179    -0.27870678737151
   18    -0.08777802424920    -0.31948144466298    -0.30969007534401    -0.27870678737151    -0.16407828832160
   19     0.00000000000000     0.00000000000000     0.00000000000000     0.00000000000000     0.00000000000000
   20     0.05392296379400     0.27647639178065     0.49715907527040     0.17267850006787    -0.22306761868835
   21     0.06972459883582     0.32546702212517     0.64802577198498     0.06497990610056    -0.08394161931421
   22    -0.06794969908855    -0.24731324514202    -0.23973366466525    -0.01979163082179     0.27870678737151
   23     0.08777802424920     0.31948144466298     0.30969007534401     0.27870678737151    -0.16407828832160
   24     0.00000000000000     0.00000000000000     0.00000000000000     0.00000000000000     0.00000000000000

                 6                   7                   8                   9                  10

    1     0.00000000000000    -0.00000000000000     0.00000000000000     0.00000000000000     0.00000000000000
    2     0.00000000000000     0.00000000000000     0.00000000000000     0.00000000000000     0.00000000000000
    3     0.00000000000000     0.00000000000000     0.00000000000000     0.00000000000000     0.00000000000000
    4     0.00000000000000     0.50127148324600     0.00000000000000     0.00000000000000    -0.00000000000000
    5     0.00000000000000     0.00000000000000     0.50127148324600     0.00000000000000     0.00000000000000
    6     1.00000000000000     0.00000000000000     0.00000000000000     0.50127148324600     0.00000000000000
    7     0.00000000000000     1.00000000000000     0.00000000000000     0.00000000000000     0.00000000000000
    8     0.00000000000000     0.00000000000000     1.00000000000000     0.00000000000000     0.00000000000000
    9     0.50127148324600     0.00000000000000     0.00000000000000     1.00000000000000     0.00000000000000
   10     0.00000000000000     0.00000000000000     0.00000000000000     0.00000000000000     1.00000000000000
   11     0.00000000000000     0.00000000000000     0.00000000000000     0.00000000000000     0.00000000000000
   12    -0.00000000000000     0.00000000000000     0.00000000000000     0.00000000000000     0.00000000000000
   13     0.00000000000000     0.00000000000000     0.00000000000000     0.00000000000000     0.00000000000000
   14     0.00000000000000     0.00000000000000     0.00000000000000     0.00000000000000     0.00000000000000
   15     0.00000000000000     0.38099528145532     0.49217308542948     0.00000000000000     0.01432078997223
   16     0.00000000000000     0.23977790757837     0.30974722873178     0.00000000000000     0.00149642491493
   17     0.00000000000000     0.19986433778359    -0.24780392131108     0.00000000000000     0.20442833733128
   18     0.00000000000000    -0.24780392131108     0.07157611108295     0.00000000000000    -0.17194059423404
   19     0.19595761277095     0.00000000000000     0.00000000000000     0.39169141557526     0.00000000000000
   20     0.00000000000000     0.38099528145532    -0.49217308542948     0.00000000000000     0.01432078997223
   21     0.00000000000000     0.23977790757837    -0.30974722873178     0.00000000000000     0.00149642491493
   22     0.00000000000000     0.19986433778359     0.24780392131108     0.00000000000000     0.20442833733128
   23     0.00000000000000     0.24780392131108     0.07157611108295     0.00000000000000     0.17194059423404
   24     0.19595761277095     0.00000000000000     0.00000000000000     0.39169141557526     0.00000000000000

                11                  12                  13                  14                  15

    1     0.00000000000000     0.00000000000000     0.00000000000000     0.00000000000000     0.05392296379400
    2     0.00000000000000     0.00000000000000     0.00000000000000     0.00000000000000     0.27647639178065
    3     0.00000000000000     0.00000000000000     0.00000000000000     0.00000000000000     0.49715907527040
    4     0.00000000000000     0.00000000000000     0.00000000000000     0.00000000000000     0.17267850006787
    5    -0.00000000000000     0.00000000000000     0.00000000000000     0.00000000000000     0.22306761868835
    6     0.00000000000000    -0.00000000000000     0.00000000000000     0.00000000000000     0.00000000000000
    7     0.00000000000000     0.00000000000000     0.00000000000000     0.00000000000000     0.38099528145532
    8     0.00000000000000     0.00000000000000     0.00000000000000     0.00000000000000     0.49217308542948
    9     0.00000000000000     0.00000000000000     0.00000000000000     0.00000000000000     0.00000000000000
   10     0.00000000000000     0.00000000000000     0.00000000000000     0.00000000000000     0.01432078997223
   11     1.00000000000000     0.00000000000000     0.00000000000000     0.00000000000000     0.19347569495630
   12     0.00000000000000     1.00000000000000     0.00000000000000     0.00000000000000     0.00000000000000
   13     0.00000000000000     0.00000000000000     1.00000000000000     0.00000000000000     0.12496680979686
   14     0.00000000000000     0.00000000000000     0.00000000000000     1.00000000000000     0.00000000000000
   15     0.19347569495630     0.00000000000000     0.12496680979686     0.00000000000000     1.00000000000000
   16     0.02021689103244     0.00000000000000     0.01305817961737     0.00000000000000     0.68486025149275
   17    -0.02644885812116     0.00000000000000    -0.17968209917738     0.00000000000000    -0.00000000000000
   18    -0.16449174957993     0.00000000000000     0.01962302840489     0.00000000000000     0.00000000000000
   19     0.00000000000000     0.19487244877482     0.00000000000000     0.25173795857089     0.00000000000000
   20    -0.19347569495630     0.00000000000000     0.12496680979686     0.00000000000000     0.12111998541346
   21    -0.02021689103244     0.00000000000000     0.01305817961737     0.00000000000000     0.30757185126783
   22     0.02644885812116     0.00000000000000    -0.17968209917738     0.00000000000000    -0.00000000000000
   23    -0.16449174957993     0.00000000000000    -0.01962302840489     0.00000000000000     0.15983374218837
   24     0.00000000000000     0.19487244877482     0.00000000000000    -0.25173795857089     0.00000000000000

                16                  17                  18                  19                  20

    1     0.06972459883582    -0.06794969908855    -0.08777802424920     0.00000000000000     0.05392296379400
    2     0.32546702212517    -0.24731324514202    -0.31948144466298     0.00000000000000     0.27647639178065
    3     0.64802577198498    -0.23973366466525    -0.30969007534401     0.00000000000000     0.49715907527040
    4     0.06497990610056    -0.01979163082179    -0.27870678737151     0.00000000000000     0.17267850006787
    5     0.08394161931421    -0.27870678737151    -0.16407828832160     0.00000000000000    -0.22306761868835
    6     0.00000000000000     0.00000000000000     0.00000000000000     0.19595761277095     0.00000000000000
    7     0.23977790757837     0.19986433778359    -0.24780392131108     0.00000000000000     0.38099528145532
    8     0.30974722873178    -0.24780392131108     0.07157611108295     0.00000000000000    -0.49217308542948
    9     0.00000000000000     0.00000000000000     0.00000000000000     0.39169141557526     0.00000000000000
   10     0.00149642491493     0.20442833733128    -0.17194059423404     0.00000000000000     0.01432078997223
   11     0.02021689103244    -0.02644885812116    -0.16449174957993     0.00000000000000    -0.19347569495630
   12     0.00000000000000     0.00000000000000     0.00000000000000     0.19487244877482     0.00000000000000
   13     0.01305817961737    -0.17968209917738     0.01962302840489     0.00000000000000     0.12496680979686
   14     0.00000000000000     0.00000000000000     0.00000000000000     0.25173795857089     0.00000000000000
   15     0.68486025149275    -0.00000000000000     0.00000000000000     0.00000000000000     0.12111998541346
   16     1.00000000000000    -0.00000000000000     0.00000000000000     0.00000000000000     0.30757185126783
   17    -0.00000000000000     1.00000000000000     0.00000000000000     0.00000000000000    -0.00000000000000
   18     0.00000000000000     0.00000000000000     1.00000000000000     0.00000000000000    -0.15983374218837
   19     0.00000000000000     0.00000000000000     0.00000000000000     1.00000000000000     0.00000000000000
   20     0.30757185126783    -0.00000000000000    -0.15983374218837     0.00000000000000     1.00000000000000
   21     0.60694298864911    -0.00000000000000    -0.17518489306362     0.00000000000000     0.68486025149275
   22    -0.00000000000000     0.05102403200624     0.00000000000000     0.00000000000000    -0.00000000000000
   23     0.17518489306362     0.00000000000000    -0.25261575169674     0.00000000000000     0.00000000000000
   24     0.00000000000000     0.00000000000000     0.00000000000000     0.05102403200624     0.00000000000000

                21                  22                  23                  24

    1     0.06972459883582    -0.06794969908855     0.08777802424920     0.00000000000000
    2     0.32546702212517    -0.24731324514202     0.31948144466298     0.00000000000000
    3     0.64802577198498    -0.23973366466525     0.30969007534401     0.00000000000000
    4     0.06497990610056    -0.01979163082179     0.27870678737151     0.00000000000000
    5    -0.08394161931421     0.27870678737151    -0.16407828832160     0.00000000000000
    6     0.00000000000000     0.00000000000000     0.00000000000000     0.19595761277095
    7     0.23977790757837     0.19986433778359     0.24780392131108     0.00000000000000
    8    -0.30974722873178     0.24780392131108     0.07157611108295     0.00000000000000
    9     0.00000000000000     0.00000000000000     0.00000000000000     0.39169141557526
   10     0.00149642491493     0.20442833733128     0.17194059423404     0.00000000000000
   11    -0.02021689103244     0.02644885812116    -0.16449174957993     0.00000000000000
   12     0.00000000000000     0.00000000000000     0.00000000000000     0.19487244877482
   13     0.01305817961737    -0.17968209917738    -0.01962302840489     0.00000000000000
   14     0.00000000000000     0.00000000000000     0.00000000000000    -0.25173795857089
   15     0.30757185126783    -0.00000000000000     0.15983374218837     0.00000000000000
   16     0.60694298864911    -0.00000000000000     0.17518489306362     0.00000000000000
   17    -0.00000000000000     0.05102403200624     0.00000000000000     0.00000000000000
   18    -0.17518489306362     0.00000000000000    -0.25261575169674     0.00000000000000
   19     0.00000000000000     0.00000000000000     0.00000000000000     0.05102403200624
   20     0.68486025149275    -0.00000000000000     0.00000000000000     0.00000000000000
   21     1.00000000000000    -0.00000000000000     0.00000000000000     0.00000000000000
   22    -0.00000000000000     1.00000000000000     0.00000000000000     0.00000000000000
   23     0.00000000000000     0.00000000000000     1.00000000000000     0.00000000000000
   24     0.00000000000000     0.00000000000000     0.00000000000000     1.00000000000000



  ## Kinetic (Symmetry 0) ##
  Irrep: 1 Size: 24 x 24

                 1                   2                   3                   4                   5

    1    29.18664172532131   -15.94965622463628     0.16779580102055    -0.00000000000000     0.00000000000000
    2   -15.94965622463628    10.36110421150721     0.47126332692091     0.00000000000000     0.00000000000000
    3     0.16779580102055     0.47126332692091     0.45345000000000     0.00000000000000     0.00000000000000
    4    -0.00000000000000     0.00000000000000     0.00000000000000     4.32482633292432     0.00000000000000
    5     0.00000000000000     0.00000000000000     0.00000000000000     0.00000000000000     4.32482633292432
    6     0.00000000000000     0.00000000000000     0.00000000000000     0.00000000000000     0.00000000000000
    7     0.00000000000000    -0.00000000000000     0.00000000000000     0.55816889960661     0.00000000000000
    8     0.00000000000000     0.00000000000000     0.00000000000000     0.00000000000000     0.55816889960661
    9     0.00000000000000     0.00000000000000     0.00000000000000     0.00000000000000     0.00000000000000
   10    -0.00000000000000     0.00000000000000     0.00000000000000    -0.00000000000000     0.00000000000000
   11     0.00000000000000     0.00000000000000     0.00000000000000     0.00000000000000    -0.00000000000000
   12     0.00000000000000     0.00000000000000     0.00000000000000     0.00000000000000     0.00000000000000
   13     0.00000000000000     0.00000000000000     0.00000000000000     0.00000000000000     0.00000000000000
   14     0.00000000000000     0.00000000000000     0.00000000000000     0.00000000000000     0.00000000000000
   15    -0.00277268546727     0.06292679077189     0.16348333582146     0.13513516872077     0.17456881010516
   16     0.01845345447510     0.08025050074316     0.13693505153004     0.03062135704157     0.03955694075165
   17    -0.03051558147142    -0.25784497068261    -0.18439901268392    -0.21183909586567    -0.50242723937500
   18    -0.03942029893151    -0.33308642117191    -0.23820828089031    -0.50242723937500    -0.47194595472606
   19     0.00000000000000     0.00000000000000     0.00000000000000     0.00000000000000     0.00000000000000
   20    -0.00277268546727     0.06292679077189     0.16348333582146     0.13513516872077    -0.17456881010516
   21     0.01845345447510     0.08025050074316     0.13693505153004     0.03062135704157    -0.03955694075165
   22    -0.03051558147142    -0.25784497068261    -0.18439901268392    -0.21183909586567     0.50242723937500
   23     0.03942029893151     0.33308642117191     0.23820828089031     0.50242723937500    -0.47194595472606
   24     0.00000000000000     0.00000000000000     0.00000000000000     0.00000000000000     0.00000000000000

                 6                   7                   8                   9                  10

    1     0.00000000000000     0.00000000000000     0.00000000000000     0.00000000000000    -0.00000000000000
    2     0.00000000000000    -0.00000000000000     0.00000000000000     0.00000000000000     0.00000000000000
    3     0.00000000000000     0.00000000000000     0.00000000000000     0.00000000000000     0.00000000000000
    4     0.00000000000000     0.55816889960661     0.00000000000000     0.00000000000000    -0.00000000000000
    5     0.00000000000000     0.00000000000000     0.55816889960661     0.00000000000000     0.00000000000000
    6     4.32482633292432     0.00000000000000     0.00000000000000     0.55816889960661     0.00000000000000
    7     0.00000000000000     0.68825000000000     0.00000000000000     0.00000000000000     0.00000000000000
    8     0.00000000000000     0.00000000000000     0.68825000000000     0.00000000000000     0.00000000000000
    9     0.55816889960661     0.00000000000000     0.00000000000000     0.68825000000000     0.00000000000000
   10     0.00000000000000     0.00000000000000     0.00000000000000     0.00000000000000     4.14750000000000
   11     0.00000000000000     0.00000000000000     0.00000000000000     0.00000000000000     0.00000000000000
   12    -0.00000000000000     0.00000000000000     0.00000000000000     0.00000000000000     0.00000000000000
   13     0.00000000000000     0.00000000000000     0.00000000000000     0.00000000000000    -0.00000000000000
   14     0.00000000000000     0.00000000000000     0.00000000000000     0.00000000000000     0.00000000000000
   15     0.00000000000000     0.26183087123152     0.33823544287076     0.00000000000000     0.02238604653302
   16     0.00000000000000     0.09013466875224     0.11643676492397     0.00000000000000     0.00103882088004
   17     0.00000000000000     0.07077672951989    -0.28170328971323     0.00000000000000     0.35456627949654
   18     0.00000000000000    -0.28170328971323    -0.07506121889448     0.00000000000000    -0.33779537830389
   19     0.17709401149728     0.00000000000000     0.00000000000000     0.28884559051322     0.00000000000000
   20     0.00000000000000     0.26183087123152    -0.33823544287076     0.00000000000000     0.02238604653302
   21     0.00000000000000     0.09013466875224    -0.11643676492397     0.00000000000000     0.00103882088004
   22     0.00000000000000     0.07077672951989     0.28170328971323     0.00000000000000     0.35456627949654
   23     0.00000000000000     0.28170328971323    -0.07506121889448     0.00000000000000     0.33779537830389
   24     0.17709401149728     0.00000000000000     0.00000000000000     0.28884559051322     0.00000000000000

                11                  12                  13                  14                  15

    1     0.00000000000000     0.00000000000000     0.00000000000000     0.00000000000000    -0.00277268546727
    2     0.00000000000000     0.00000000000000     0.00000000000000     0.00000000000000     0.06292679077189
    3     0.00000000000000     0.00000000000000     0.00000000000000     0.00000000000000     0.16348333582146
    4     0.00000000000000     0.00000000000000     0.00000000000000     0.00000000000000     0.13513516872077
    5    -0.00000000000000     0.00000000000000     0.00000000000000     0.00000000000000     0.17456881010516
    6     0.00000000000000    -0.00000000000000     0.00000000000000     0.00000000000000     0.00000000000000
    7     0.00000000000000     0.00000000000000     0.00000000000000     0.00000000000000     0.26183087123152
    8     0.00000000000000     0.00000000000000     0.00000000000000     0.00000000000000     0.33823544287076
    9     0.00000000000000     0.00000000000000     0.00000000000000     0.00000000000000     0.00000000000000
   10     0.00000000000000     0.00000000000000     0.00000000000000     0.00000000000000     0.02238604653302
   11     4.14750000000000     0.00000000000000     0.00000000000000     0.00000000000000     0.30243833745904
   12     0.00000000000000     4.14750000000000     0.00000000000000     0.00000000000000     0.00000000000000
   13     0.00000000000000     0.00000000000000     4.14750000000000     0.00000000000000     0.19534626404137
   14     0.00000000000000     0.00000000000000     0.00000000000000     4.14750000000000     0.00000000000000
   15     0.30243833745904     0.00000000000000     0.19534626404137     0.00000000000000     0.96945722711242
   16     0.01403460228733     0.00000000000000     0.00906501188695     0.00000000000000     0.20123413106538
   17    -0.29896111522262     0.00000000000000    -0.48987471596570     0.00000000000000     0.00000000000000
   18    -0.62406904981307     0.00000000000000    -0.17335343126698     0.00000000000000     0.00000000000000
   19     0.00000000000000     0.35568038211834     0.00000000000000     0.45947107382865     0.00000000000000
   20    -0.30243833745904     0.00000000000000     0.19534626404137     0.00000000000000    -0.03037935783890
   21    -0.01403460228733     0.00000000000000     0.00906501188695     0.00000000000000     0.04191983296532
   22     0.29896111522262     0.00000000000000    -0.48987471596570     0.00000000000000     0.00000000000000
   23    -0.62406904981307     0.00000000000000     0.17335343126698     0.00000000000000     0.00157677314069
   24     0.00000000000000     0.35568038211834     0.00000000000000    -0.45947107382865     0.00000000000000

                16                  17                  18                  19                  20

    1     0.01845345447510    -0.03051558147142    -0.03942029893151     0.00000000000000    -0.00277268546727
    2     0.08025050074316    -0.25784497068261    -0.33308642117191     0.00000000000000     0.06292679077189
    3     0.13693505153004    -0.18439901268392    -0.23820828089031     0.00000000000000     0.16348333582146
    4     0.03062135704157    -0.21183909586567    -0.50242723937500     0.00000000000000     0.13513516872077
    5     0.03955694075165    -0.50242723937500    -0.47194595472606     0.00000000000000    -0.17456881010516
    6     0.00000000000000     0.00000000000000     0.00000000000000     0.17709401149728     0.00000000000000
    7     0.09013466875224     0.07077672951989    -0.28170328971323     0.00000000000000     0.26183087123152
    8     0.11643676492397    -0.28170328971323    -0.07506121889448     0.00000000000000    -0.33823544287076
    9     0.00000000000000     0.00000000000000     0.00000000000000     0.28884559051322     0.00000000000000
   10     0.00103882088004     0.35456627949654    -0.33779537830389     0.00000000000000     0.02238604653302
   11     0.01403460228733    -0.29896111522262    -0.62406904981307     0.00000000000000    -0.30243833745904
   12     0.00000000000000     0.00000000000000     0.00000000000000     0.35568038211834     0.00000000000000
   13     0.00906501188695    -0.48987471596570    -0.17335343126698     0.00000000000000     0.19534626404137
   14     0.00000000000000     0.00000000000000     0.00000000000000     0.45947107382865     0.00000000000000
   15     0.20123413106538     0.00000000000000     0.00000000000000     0.00000000000000    -0.03037935783890
   16     0.18300000000000    -0.00000000000000     0.00000000000000     0.00000000000000     0.04191983296532
   17    -0.00000000000000     1.81750000000000     0.00000000000000     0.00000000000000     0.00000000000000
   18     0.00000000000000     0.00000000000000     1.81750000000000     0.00000000000000    -0.00157677314069
   19     0.00000000000000     0.00000000000000     0.00000000000000     1.81750000000000     0.00000000000000
   20     0.04191983296532     0.00000000000000    -0.00157677314069     0.00000000000000     0.96945722711242
   21     0.07409736584033    -0.00000000000000    -0.06020641298460     0.00000000000000     0.20123413106538
   22    -0.00000000000000    -0.01763688320470     0.00000000000000     0.00000000000000     0.00000000000000
   23     0.06020641298460     0.00000000000000    -0.13342737640529     0.00000000000000     0.00000000000000
   24     0.00000000000000     0.00000000000000     0.00000000000000    -0.01763688320470     0.00000000000000

                21                  22                  23                  24

    1     0.01845345447510    -0.03051558147142     0.03942029893151     0.00000000000000
    2     0.08025050074316    -0.25784497068261     0.33308642117191     0.00000000000000
    3     0.13693505153004    -0.18439901268392     0.23820828089031     0.00000000000000
    4     0.03062135704157    -0.21183909586567     0.50242723937500     0.00000000000000
    5    -0.03955694075165     0.50242723937500    -0.47194595472606     0.00000000000000
    6     0.00000000000000     0.00000000000000     0.00000000000000     0.17709401149728
    7     0.09013466875224     0.07077672951989     0.28170328971323     0.00000000000000
    8    -0.11643676492397     0.28170328971323    -0.07506121889448     0.00000000000000
    9     0.00000000000000     0.00000000000000     0.00000000000000     0.28884559051322
   10     0.00103882088004     0.35456627949654     0.33779537830389     0.00000000000000
   11    -0.01403460228733     0.29896111522262    -0.62406904981307     0.00000000000000
   12     0.00000000000000     0.00000000000000     0.00000000000000     0.35568038211834
   13     0.00906501188695    -0.48987471596570     0.17335343126698     0.00000000000000
   14     0.00000000000000     0.00000000000000     0.00000000000000    -0.45947107382865
   15     0.04191983296532     0.00000000000000     0.00157677314069     0.00000000000000
   16     0.07409736584033    -0.00000000000000     0.06020641298460     0.00000000000000
   17    -0.00000000000000    -0.01763688320470     0.00000000000000     0.00000000000000
   18    -0.06020641298460     0.00000000000000    -0.13342737640529     0.00000000000000
   19     0.00000000000000     0.00000000000000     0.00000000000000    -0.01763688320470
   20     0.20123413106538     0.00000000000000     0.00000000000000     0.00000000000000
   21     0.18300000000000    -0.00000000000000     0.00000000000000     0.00000000000000
   22    -0.00000000000000     1.81750000000000     0.00000000000000     0.00000000000000
   23     0.00000000000000     0.00000000000000     1.81750000000000     0.00000000000000
   24     0.00000000000000     0.00000000000000     0.00000000000000     1.81750000000000



  ## Potential (Symmetry 0) ##
  Irrep: 1 Size: 24 x 24

                 1                   2                   3                   4                   5

    1   -62.21331588100913    23.81850995360281    -6.09720278512430    -0.03064780727524     0.00000000000000
    2    23.81850995360278   -20.63968560248872    -5.51569271913253    -0.17047542032378     0.00000000000000
    3    -6.09720278512430    -5.51569271913253    -8.07301806551584    -0.17792575939920     0.00000000000000
    4    -0.03064780727524    -0.17047542032378    -0.17792575939920   -12.84475095150962     0.00000000000000
    5     0.00000000000000     0.00000000000000     0.00000000000000     0.00000000000000   -12.88736406260679
    6     0.00000000000000     0.00000000000000     0.00000000000000     0.00000000000000     0.00000000000000
    7    -0.00573180341082    -0.11591121362701    -0.24218126579182    -4.36784891721425     0.00000000000000
    8     0.00000000000000     0.00000000000000     0.00000000000000     0.00000000000000    -4.40677313325650
    9     0.00000000000000     0.00000000000000     0.00000000000000     0.00000000000000     0.00000000000000
   10    -0.00038492394746    -0.00937449893904    -0.01287740856951    -0.14761769921032     0.00000000000000
   11     0.00000000000000     0.00000000000000     0.00000000000000     0.00000000000000    -0.21146684006307
   12     0.00000000000000     0.00000000000000     0.00000000000000     0.00000000000000     0.00000000000000
   13    -0.00335894303471    -0.08180423203800    -0.11237150118840    -0.04399625678748     0.00000000000000
   14     0.00000000000000     0.00000000000000     0.00000000000000     0.00000000000000     0.00000000000000
   15    -1.62002370663825    -2.20567244526948    -3.62973217742695    -1.54180208344396    -1.93765716850669
   16    -2.12430558208462    -2.52256902687562    -4.35649123775410    -0.61625303716706    -0.69351261473635
   17     2.10363530010227     2.01262199282568     2.37294790679544     0.40731013135481     2.64162450226552
   18     2.71965464252098     2.63763552762992     3.13359781251541     2.70944803861618     1.75912065302925
   19     0.00000000000000     0.00000000000000     0.00000000000000     0.00000000000000     0.00000000000000
   20    -1.62002370663825    -2.20567244526948    -3.62973217742695    -1.54180208344396     1.93765716850669
   21    -2.12430558208462    -2.52256902687562    -4.35649123775410    -0.61625303716706     0.69351261473635
   22     2.10363530010227     2.01262199282568     2.37294790679544     0.40731013135481    -2.64162450226552
   23    -2.71965464252098    -2.63763552762992    -3.13359781251541    -2.70944803861618     1.75912065302925
   24     0.00000000000000     0.00000000000000     0.00000000000000     0.00000000000000     0.00000000000000

                 6                   7                   8                   9                  10

    1     0.00000000000000    -0.00573180341082     0.00000000000000     0.00000000000000    -0.00038492394746
    2     0.00000000000000    -0.11591121362701     0.00000000000000     0.00000000000000    -0.00937449893904
    3     0.00000000000000    -0.24218126579182     0.00000000000000     0.00000000000000    -0.01287740856951
    4     0.00000000000000    -4.36784891721425     0.00000000000000     0.00000000000000    -0.14761769921032
    5     0.00000000000000     0.00000000000000    -4.40677313325650     0.00000000000000     0.00000000000000
    6   -12.78103233299245     0.00000000000000     0.00000000000000    -4.30964623711844     0.00000000000000
    7     0.00000000000000    -5.43018391492684     0.00000000000000     0.00000000000000    -0.12713233135256
    8     0.00000000000000     0.00000000000000    -5.52064853611596     0.00000000000000     0.00000000000000
    9    -4.30964623711844     0.00000000000000     0.00000000000000    -5.29491379410167     0.00000000000000
   10     0.00000000000000    -0.12713233135256     0.00000000000000     0.00000000000000    -8.49184677242676
   11     0.00000000000000     0.00000000000000    -0.22058833414849     0.00000000000000     0.00000000000000
   12    -0.12347432648811     0.00000000000000     0.00000000000000    -0.10433092098476     0.00000000000000
   13     0.00000000000000    -0.05812870658186     0.00000000000000     0.00000000000000     0.04742284014076
   14     0.00000000000000     0.00000000000000     0.00000000000000     0.00000000000000     0.00000000000000
   15     0.00000000000000    -2.27189217200452    -2.86462853084622     0.00000000000000    -0.14024509027694
   16     0.00000000000000    -1.28135230564295    -1.45698912842619     0.00000000000000    -0.03348877577065
   17     0.00000000000000    -0.79474428149496     1.79529400933180     0.00000000000000    -1.44700271213517
   18     0.00000000000000     1.87549302607032     0.15457296537602     0.00000000000000     1.29665609819625
   19    -1.66497937258877     0.00000000000000     0.00000000000000    -2.19751985054313     0.00000000000000
   20     0.00000000000000    -2.27189217200452     2.86462853084622     0.00000000000000    -0.14024509027694
   21     0.00000000000000    -1.28135230564295     1.45698912842619     0.00000000000000    -0.03348877577065
   22     0.00000000000000    -0.79474428149496    -1.79529400933180     0.00000000000000    -1.44700271213517
   23     0.00000000000000    -1.87549302607032     0.15457296537602     0.00000000000000    -1.29665609819625
   24    -1.66497937258877     0.00000000000000     0.00000000000000    -2.19751985054313     0.00000000000000

                11                  12                  13                  14                  15

    1     0.00000000000000     0.00000000000000    -0.00335894303471     0.00000000000000    -1.62002370663825
    2     0.00000000000000     0.00000000000000    -0.08180423203800     0.00000000000000    -2.20567244526948
    3     0.00000000000000     0.00000000000000    -0.11237150118840     0.00000000000000    -3.62973217742695
    4     0.00000000000000     0.00000000000000    -0.04399625678748     0.00000000000000    -1.54180208344396
    5    -0.21146684006307     0.00000000000000     0.00000000000000     0.00000000000000    -1.93765716850669
    6     0.00000000000000    -0.12347432648811     0.00000000000000     0.00000000000000     0.00000000000000
    7     0.00000000000000     0.00000000000000    -0.05812870658186     0.00000000000000    -2.27189217200452
    8    -0.22058833414849     0.00000000000000     0.00000000000000     0.00000000000000    -2.86462853084622
    9     0.00000000000000    -0.10433092098476     0.00000000000000     0.00000000000000     0.00000000000000
   10     0.00000000000000     0.00000000000000     0.04742284014076     0.00000000000000    -0.14024509027694
   11    -8.63789166168627     0.00000000000000     0.00000000000000     0.00000000000000    -1.51795316136360
   12     0.00000000000000    -8.44288786788898     0.00000000000000     0.00000000000000     0.00000000000000
   13     0.00000000000000     0.00000000000000    -8.52275007749165     0.00000000000000    -0.98082816579784
   14     0.00000000000000     0.00000000000000     0.00000000000000    -8.47926455625424     0.00000000000000
   15    -1.51795316136360     0.00000000000000    -0.98082816579784     0.00000000000000    -6.10307682234674
   16    -0.17758396208629     0.00000000000000    -0.15639218627856     0.00000000000000    -3.77191353257717
   17     0.37411542471137     0.00000000000000     1.39132744470561     0.00000000000000     0.89611064063116
   18     1.39953545807841     0.00000000000000     0.01064935709017     0.00000000000000     1.23444402167315
   19     0.00000000000000    -1.41374841382823     0.00000000000000    -1.79518439179990     0.00000000000000
   20     1.51795316136360     0.00000000000000    -0.98082816579784     0.00000000000000    -0.91184455850994
   21     0.17758396208629     0.00000000000000    -0.15639218627856     0.00000000000000    -1.92964405029779
   22    -0.37411542471137     0.00000000000000     1.39132744470561     0.00000000000000     0.21539424163769
   23     1.39953545807841     0.00000000000000    -0.01064935709017     0.00000000000000    -1.29628450640735
   24     0.00000000000000    -1.41374841382823     0.00000000000000     1.79518439179990     0.00000000000000

                16                  17                  18                  19                  20

    1    -2.12430558208462     2.10363530010227     2.71965464252098     0.00000000000000    -1.62002370663825
    2    -2.52256902687562     2.01262199282568     2.63763552762992     0.00000000000000    -2.20567244526948
    3    -4.35649123775410     2.37294790679544     3.13359781251541     0.00000000000000    -3.62973217742695
    4    -0.61625303716706     0.40731013135481     2.70944803861618     0.00000000000000    -1.54180208344396
    5    -0.69351261473635     2.64162450226551     1.75912065302925     0.00000000000000     1.93765716850669
    6     0.00000000000000     0.00000000000000     0.00000000000000    -1.66497937258877     0.00000000000000
    7    -1.28135230564295    -0.79474428149496     1.87549302607032     0.00000000000000    -2.27189217200452
    8    -1.45698912842619     1.79529400933180     0.15457296537602     0.00000000000000     2.86462853084622
    9     0.00000000000000     0.00000000000000     0.00000000000000    -2.19751985054313     0.00000000000000
   10    -0.03348877577065    -1.44700271213516     1.29665609819625     0.00000000000000    -0.14024509027694
   11    -0.17758396208629     0.37411542471137     1.39953545807841     0.00000000000000     1.51795316136360
   12     0.00000000000000     0.00000000000000     0.00000000000000    -1.41374841382823     0.00000000000000
   13    -0.15639218627856     1.39132744470561     0.01064935709018     0.00000000000000    -0.98082816579784
   14     0.00000000000000     0.00000000000000     0.00000000000000    -1.79518439179990     0.00000000000000
   15    -3.77191353257717     0.89611064063116     1.23444402167315     0.00000000000000    -0.91184455850994
   16    -4.40075873563805     0.76361693009180     1.05832403665642     0.00000000000000    -1.92964405029779
   17     0.76361693009180    -5.67645917411892    -0.61393655145297     0.00000000000000     0.21539424163769
   18     1.05832403665642    -0.61393655145297    -6.03833471414557     0.00000000000000     1.29628450640735
   19     0.00000000000000     0.00000000000000     0.00000000000000    -5.20120578025968     0.00000000000000
   20    -1.92964405029779     0.21539424163769     1.29628450640735     0.00000000000000    -6.10307682234674
   21    -3.03806942663012     0.47040747942887     1.54829978065153     0.00000000000000    -3.77191353257717
   22     0.47040747942887    -0.45533288571018    -0.32746731323144     0.00000000000000     0.89611064063116
   23    -1.54829978065153     0.32746731323144     2.12225359380276     0.00000000000000    -1.23444402167315
   24     0.00000000000000     0.00000000000000     0.00000000000000    -0.33545367014579     0.00000000000000

                21                  22                  23                  24

    1    -2.12430558208462     2.10363530010227    -2.71965464252098     0.00000000000000
    2    -2.52256902687562     2.01262199282568    -2.63763552762992     0.00000000000000
    3    -4.35649123775410     2.37294790679544    -3.13359781251541     0.00000000000000
    4    -0.61625303716706     0.40731013135481    -2.70944803861618     0.00000000000000
    5     0.69351261473635    -2.64162450226551     1.75912065302925     0.00000000000000
    6     0.00000000000000     0.00000000000000     0.00000000000000    -1.66497937258877
    7    -1.28135230564295    -0.79474428149496    -1.87549302607032     0.00000000000000
    8     1.45698912842619    -1.79529400933180     0.15457296537602     0.00000000000000
    9     0.00000000000000     0.00000000000000     0.00000000000000    -2.19751985054313
   10    -0.03348877577065    -1.44700271213516    -1.29665609819625     0.00000000000000
   11     0.17758396208629    -0.37411542471137     1.39953545807841     0.00000000000000
   12     0.00000000000000     0.00000000000000     0.00000000000000    -1.41374841382823
   13    -0.15639218627856     1.39132744470561    -0.01064935709018     0.00000000000000
   14     0.00000000000000     0.00000000000000     0.00000000000000     1.79518439179990
   15    -1.92964405029779     0.21539424163769    -1.29628450640735     0.00000000000000
   16    -3.03806942663012     0.47040747942887    -1.54829978065153     0.00000000000000
   17     0.47040747942887    -0.45533288571018     0.32746731323144     0.00000000000000
   18     1.54829978065153    -0.32746731323144     2.12225359380276     0.00000000000000
   19     0.00000000000000     0.00000000000000     0.00000000000000    -0.33545367014579
   20    -3.77191353257717     0.89611064063116    -1.23444402167315     0.00000000000000
   21    -4.40075873563805     0.76361693009180    -1.05832403665642     0.00000000000000
   22     0.76361693009180    -5.67645917411892     0.61393655145297     0.00000000000000
   23    -1.05832403665642     0.61393655145297    -6.03833471414557     0.00000000000000
   24     0.00000000000000     0.00000000000000     0.00000000000000    -5.20120578025968



  ## One Electron Ints (Symmetry 0) ##
  Irrep: 1 Size: 24 x 24

                 1                   2                   3                   4                   5

    1   -33.02667415568782     7.86885372896653    -5.92940698410375    -0.03064780727524     0.00000000000000
    2     7.86885372896651   -10.27858139098151    -5.04442939221163    -0.17047542032378     0.00000000000000
    3    -5.92940698410375    -5.04442939221163    -7.61956806551584    -0.17792575939920     0.00000000000000
    4    -0.03064780727524    -0.17047542032378    -0.17792575939920    -8.51992461858530     0.00000000000000
    5     0.00000000000000     0.00000000000000     0.00000000000000     0.00000000000000    -8.56253772968247
    6     0.00000000000000     0.00000000000000     0.00000000000000     0.00000000000000     0.00000000000000
    7    -0.00573180341082    -0.11591121362701    -0.24218126579182    -3.80968001760764     0.00000000000000
    8     0.00000000000000     0.00000000000000     0.00000000000000     0.00000000000000    -3.84860423364989
    9     0.00000000000000     0.00000000000000     0.00000000000000     0.00000000000000     0.00000000000000
   10    -0.00038492394746    -0.00937449893904    -0.01287740856951    -0.14761769921032     0.00000000000000
   11     0.00000000000000     0.00000000000000     0.00000000000000     0.00000000000000    -0.21146684006307
   12     0.00000000000000     0.00000000000000     0.00000000000000     0.00000000000000     0.00000000000000
   13    -0.00335894303471    -0.08180423203800    -0.11237150118840    -0.04399625678748     0.00000000000000
   14     0.00000000000000     0.00000000000000     0.00000000000000     0.00000000000000     0.00000000000000
   15    -1.62279639210552    -2.14274565449759    -3.46624884160549    -1.40666691472319    -1.76308835840153
   16    -2.10585212760952    -2.44231852613245    -4.21955618622406    -0.58563168012550    -0.65395567398470
   17     2.07311971863085     1.75477702214306     2.18854889411153     0.19547103548914     2.13919726289051
   18     2.68023434358946     2.30454910645801     2.89538953162510     2.20702079924118     1.28717469830319
   19     0.00000000000000     0.00000000000000     0.00000000000000     0.00000000000000     0.00000000000000
   20    -1.62279639210552    -2.14274565449759    -3.46624884160549    -1.40666691472319     1.76308835840153
   21    -2.10585212760952    -2.44231852613245    -4.21955618622406    -0.58563168012550     0.65395567398470
   22     2.07311971863085     1.75477702214306     2.18854889411153     0.19547103548914    -2.13919726289051
   23    -2.68023434358946    -2.30454910645801    -2.89538953162510    -2.20702079924118     1.28717469830319
   24     0.00000000000000     0.00000000000000     0.00000000000000     0.00000000000000     0.00000000000000

                 6                   7                   8                   9                  10

    1     0.00000000000000    -0.00573180341082     0.00000000000000     0.00000000000000    -0.00038492394746
    2     0.00000000000000    -0.11591121362701     0.00000000000000     0.00000000000000    -0.00937449893904
    3     0.00000000000000    -0.24218126579182     0.00000000000000     0.00000000000000    -0.01287740856951
    4     0.00000000000000    -3.80968001760764     0.00000000000000     0.00000000000000    -0.14761769921032
    5     0.00000000000000     0.00000000000000    -3.84860423364989     0.00000000000000     0.00000000000000
    6    -8.45620600006813     0.00000000000000     0.00000000000000    -3.75147733751183     0.00000000000000
    7     0.00000000000000    -4.74193391492684     0.00000000000000     0.00000000000000    -0.12713233135256
    8     0.00000000000000     0.00000000000000    -4.83239853611596     0.00000000000000     0.00000000000000
    9    -3.75147733751183     0.00000000000000     0.00000000000000    -4.60666379410167     0.00000000000000
   10     0.00000000000000    -0.12713233135256     0.00000000000000     0.00000000000000    -4.34434677242676
   11     0.00000000000000     0.00000000000000    -0.22058833414849     0.00000000000000     0.00000000000000
   12    -0.12347432648811     0.00000000000000     0.00000000000000    -0.10433092098476     0.00000000000000
   13     0.00000000000000    -0.05812870658186     0.00000000000000     0.00000000000000     0.04742284014076
   14     0.00000000000000     0.00000000000000     0.00000000000000     0.00000000000000     0.00000000000000
   15     0.00000000000000    -2.01006130077299    -2.52639308797546     0.00000000000000    -0.11785904374392
   16     0.00000000000000    -1.19121763689071    -1.34055236350223     0.00000000000000    -0.03244995489061
   17     0.00000000000000    -0.72396755197507     1.51359071961857     0.00000000000000    -1.09243643263863
   18     0.00000000000000     1.59378973635709     0.07951174648154     0.00000000000000     0.95886071989236
   19    -1.48788536109149     0.00000000000000     0.00000000000000    -1.90867426002991     0.00000000000000
   20     0.00000000000000    -2.01006130077299     2.52639308797546     0.00000000000000    -0.11785904374392
   21     0.00000000000000    -1.19121763689071     1.34055236350223     0.00000000000000    -0.03244995489061
   22     0.00000000000000    -0.72396755197507    -1.51359071961857     0.00000000000000    -1.09243643263863
   23     0.00000000000000    -1.59378973635709     0.07951174648154     0.00000000000000    -0.95886071989236
   24    -1.48788536109149     0.00000000000000     0.00000000000000    -1.90867426002991     0.00000000000000

                11                  12                  13                  14                  15

    1     0.00000000000000     0.00000000000000    -0.00335894303471     0.00000000000000    -1.62279639210552
    2     0.00000000000000     0.00000000000000    -0.08180423203800     0.00000000000000    -2.14274565449759
    3     0.00000000000000     0.00000000000000    -0.11237150118840     0.00000000000000    -3.46624884160549
    4     0.00000000000000     0.00000000000000    -0.04399625678748     0.00000000000000    -1.40666691472319
    5    -0.21146684006307     0.00000000000000     0.00000000000000     0.00000000000000    -1.76308835840153
    6     0.00000000000000    -0.12347432648811     0.00000000000000     0.00000000000000     0.00000000000000
    7     0.00000000000000     0.00000000000000    -0.05812870658186     0.00000000000000    -2.01006130077299
    8    -0.22058833414849     0.00000000000000     0.00000000000000     0.00000000000000    -2.52639308797546
    9     0.00000000000000    -0.10433092098476     0.00000000000000     0.00000000000000     0.00000000000000
   10     0.00000000000000     0.00000000000000     0.04742284014076     0.00000000000000    -0.11785904374392
   11    -4.49039166168627     0.00000000000000     0.00000000000000     0.00000000000000    -1.21551482390456
   12     0.00000000000000    -4.29538786788899     0.00000000000000     0.00000000000000     0.00000000000000
   13     0.00000000000000     0.00000000000000    -4.37525007749165     0.00000000000000    -0.78548190175647
   14     0.00000000000000     0.00000000000000     0.00000000000000    -4.33176455625424     0.00000000000000
   15    -1.21551482390456     0.00000000000000    -0.78548190175647     0.00000000000000    -5.13361959523432
   16    -0.16354935979896     0.00000000000000    -0.14732717439161     0.00000000000000    -3.57067940151179
   17     0.07515430948875     0.00000000000000     0.90145272873991     0.00000000000000     0.89611064063116
   18     0.77546640826534     0.00000000000000    -0.16270407417681     0.00000000000000     1.23444402167315
   19     0.00000000000000    -1.05806803170989     0.00000000000000    -1.33571331797125     0.00000000000000
   20     1.21551482390456     0.00000000000000    -0.78548190175647     0.00000000000000    -0.94222391634885
   21     0.16354935979896     0.00000000000000    -0.14732717439161     0.00000000000000    -1.88772421733247
   22    -0.07515430948875     0.00000000000000     0.90145272873991     0.00000000000000     0.21539424163769
   23     0.77546640826534     0.00000000000000     0.16270407417681     0.00000000000000    -1.29470773326666
   24     0.00000000000000    -1.05806803170989     0.00000000000000     1.33571331797125     0.00000000000000

                16                  17                  18                  19                  20

    1    -2.10585212760952     2.07311971863085     2.68023434358946     0.00000000000000    -1.62279639210552
    2    -2.44231852613245     1.75477702214306     2.30454910645801     0.00000000000000    -2.14274565449759
    3    -4.21955618622406     2.18854889411153     2.89538953162510     0.00000000000000    -3.46624884160549
    4    -0.58563168012550     0.19547103548914     2.20702079924118     0.00000000000000    -1.40666691472319
    5    -0.65395567398470     2.13919726289051     1.28717469830319     0.00000000000000     1.76308835840153
    6     0.00000000000000     0.00000000000000     0.00000000000000    -1.48788536109149     0.00000000000000
    7    -1.19121763689071    -0.72396755197507     1.59378973635709     0.00000000000000    -2.01006130077299
    8    -1.34055236350223     1.51359071961857     0.07951174648154     0.00000000000000     2.52639308797546
    9     0.00000000000000     0.00000000000000     0.00000000000000    -1.90867426002991     0.00000000000000
   10    -0.03244995489061    -1.09243643263863     0.95886071989236     0.00000000000000    -0.11785904374392
   11    -0.16354935979896     0.07515430948875     0.77546640826534     0.00000000000000     1.21551482390456
   12     0.00000000000000     0.00000000000000     0.00000000000000    -1.05806803170989     0.00000000000000
   13    -0.14732717439161     0.90145272873991    -0.16270407417681     0.00000000000000    -0.78548190175647
   14     0.00000000000000     0.00000000000000     0.00000000000000    -1.33571331797125     0.00000000000000
   15    -3.57067940151179     0.89611064063116     1.23444402167315     0.00000000000000    -0.94222391634885
   16    -4.21775873563805     0.76361693009180     1.05832403665642     0.00000000000000    -1.88772421733247
   17     0.76361693009180    -3.85895917411892    -0.61393655145297     0.00000000000000     0.21539424163769
   18     1.05832403665642    -0.61393655145297    -4.22083471414557     0.00000000000000     1.29470773326666
   19     0.00000000000000     0.00000000000000     0.00000000000000    -3.38370578025968     0.00000000000000
   20    -1.88772421733247     0.21539424163769     1.29470773326666     0.00000000000000    -5.13361959523432
   21    -2.96397206078978     0.47040747942887     1.48809336766693     0.00000000000000    -3.57067940151179
   22     0.47040747942887    -0.47296976891488    -0.32746731323144     0.00000000000000     0.89611064063116
   23    -1.48809336766693     0.32746731323144     1.98882621739747     0.00000000000000    -1.23444402167315
   24     0.00000000000000     0.00000000000000     0.00000000000000    -0.35309055335048     0.00000000000000

                21                  22                  23                  24

    1    -2.10585212760952     2.07311971863085    -2.68023434358946     0.00000000000000
    2    -2.44231852613245     1.75477702214306    -2.30454910645801     0.00000000000000
    3    -4.21955618622406     2.18854889411153    -2.89538953162510     0.00000000000000
    4    -0.58563168012550     0.19547103548914    -2.20702079924118     0.00000000000000
    5     0.65395567398470    -2.13919726289051     1.28717469830319     0.00000000000000
    6     0.00000000000000     0.00000000000000     0.00000000000000    -1.48788536109149
    7    -1.19121763689071    -0.72396755197507    -1.59378973635709     0.00000000000000
    8     1.34055236350223    -1.51359071961857     0.07951174648154     0.00000000000000
    9     0.00000000000000     0.00000000000000     0.00000000000000    -1.90867426002991
   10    -0.03244995489061    -1.09243643263863    -0.95886071989236     0.00000000000000
   11     0.16354935979896    -0.07515430948875     0.77546640826534     0.00000000000000
   12     0.00000000000000     0.00000000000000     0.00000000000000    -1.05806803170989
   13    -0.14732717439161     0.90145272873991     0.16270407417681     0.00000000000000
   14     0.00000000000000     0.00000000000000     0.00000000000000     1.33571331797125
   15    -1.88772421733247     0.21539424163769    -1.29470773326666     0.00000000000000
   16    -2.96397206078978     0.47040747942887    -1.48809336766693     0.00000000000000
   17     0.47040747942887    -0.47296976891488     0.32746731323144     0.00000000000000
   18     1.48809336766693    -0.32746731323144     1.98882621739747     0.00000000000000
   19     0.00000000000000     0.00000000000000     0.00000000000000    -0.35309055335048
   20    -3.57067940151179     0.89611064063116    -1.23444402167315     0.00000000000000
   21    -4.21775873563805     0.76361693009180    -1.05832403665642     0.00000000000000
   22     0.76361693009180    -3.85895917411892     0.61393655145297     0.00000000000000
   23    -1.05832403665642     0.61393655145297    -4.22083471414557     0.00000000000000
   24     0.00000000000000     0.00000000000000     0.00000000000000    -3.38370578025968




	There are 0 unique integrals

  ## Fock (Symmetry 0) ##
  Irrep: 1 Size: 24 x 24

                 1                   2                   3                   4                   5

    1   -31.45186914579556     4.94340442241645    -3.39517269630555     0.23678160901726     0.00000000000000
    2     4.94340442241642    -8.69859957256939    -0.80560912646538    -0.04093247167877     0.00000000000001
    3    -3.39517269630554    -0.80560912646539    -4.03354279504387     0.02030773830485    -0.00000000000000
    4     0.23678160901726    -0.04093247167877     0.02030773830485    -8.46675227329884    -0.00000000000000
    5     0.00000000000000     0.00000000000001    -0.00000000000000    -0.00000000000000    -8.48995201718769
    6     0.00000000000000     0.00000000000000    -0.00000000000000     0.00000000000000    -0.00000000000000
    7     0.08967806548393     0.06400394039353     0.42118237709631    -0.59443419718885     0.00000000000000
    8    -0.00000000000000     0.00000000000000     0.00000000000000    -0.00000000000000    -0.50080898443992
    9    -0.00000000000000     0.00000000000000     0.00000000000000     0.00000000000000    -0.00000000000000
   10    -0.00797994511086    -0.01669261431777     0.07615457865443    -0.09965691333221     0.00000000000000
   11    -0.00000000000000     0.00000000000000    -0.00000000000001    -0.00000000000000    -0.09052925161764
   12     0.00000000000000    -0.00000000000000     0.00000000000000     0.00000000000000     0.00000000000000
   13     0.11912467226209    -0.01538568816473     0.31507113588490    -0.01109887550601    -0.00000000000000
   14    -0.00000000000000    -0.00000000000000     0.00000000000000     0.00000000000000     0.00000000000000
   15    -0.47654688552409    -0.15166090746329    -0.48797405402718    -0.08456492769380    -0.15611348833186
   16    -0.50298470578767    -0.21925153511700    -0.71814908259697    -0.02397173245273    -0.13426512006988
   17     1.11945402027012     0.43366521133528     0.58315037025783     0.11762567795208     0.45782721529274
   18     1.34197167454577     0.48810626529852     0.74286903175728     0.41716917371533     0.38667377979324
   19    -0.00000000000000    -0.00000000000000     0.00000000000000    -0.00000000000000     0.00000000000000
   20    -0.47654688552410    -0.15166090746330    -0.48797405402718    -0.08456492769380     0.15611348833186
   21    -0.50298470578767    -0.21925153511699    -0.71814908259697    -0.02397173245274     0.13426512006988
   22     1.11945402027012     0.43366521133529     0.58315037025782     0.11762567795208    -0.45782721529274
   23    -1.34197167454579    -0.48810626529852    -0.74286903175727    -0.41716917371534     0.38667377979324
   24     0.00000000000000     0.00000000000000     0.00000000000000    -0.00000000000000     0.00000000000000

                 6                   7                   8                   9                  10

    1     0.00000000000000     0.08967806548393    -0.00000000000000    -0.00000000000000    -0.00797994511086
    2     0.00000000000000     0.06400394039353     0.00000000000000     0.00000000000000    -0.01669261431777
    3    -0.00000000000000     0.42118237709631     0.00000000000001     0.00000000000000     0.07615457865443
    4     0.00000000000000    -0.59443419718885    -0.00000000000000     0.00000000000000    -0.09965691333221
    5    -0.00000000000000     0.00000000000000    -0.50080898443993    -0.00000000000000     0.00000000000000
    6    -8.41773110702791    -0.00000000000000     0.00000000000000    -0.60521975979280     0.00000000000000
    7    -0.00000000000000    -3.58099305724127    -0.00000000000000     0.00000000000000     0.14566285692904
    8     0.00000000000000    -0.00000000000000    -3.39621976341418     0.00000000000000     0.00000000000000
    9    -0.60521975979280     0.00000000000000     0.00000000000000    -3.78598473127927    -0.00000000000000
   10     0.00000000000000     0.14566285692904     0.00000000000000    -0.00000000000000    -4.11368252461129
   11    -0.00000000000000    -0.00000000000000     0.33970855447915    -0.00000000000000     0.00000000000000
   12    -0.07960565030802     0.00000000000000    -0.00000000000000     0.09627894770281    -0.00000000000000
   13     0.00000000000000     0.12010250458106     0.00000000000000     0.00000000000000    -0.04496792302029
   14    -0.00000000000000    -0.00000000000000    -0.00000000000000     0.00000000000000    -0.00000000000000
   15    -0.00000000000000    -0.38147618818695    -0.54249367568488     0.00000000000000    -0.08932535607397
   16    -0.00000000000000    -0.09348296865086    -0.28570504452196    -0.00000000000000     0.01236002547281
   17     0.00000000000000    -0.07318054152242     0.47814486880516    -0.00000000000000    -0.37989519425313
   18     0.00000000000000     0.41503768326772     0.25206173718391    -0.00000000000000     0.32673758252842
   19    -0.24786860445088     0.00000000000000    -0.00000000000000    -0.37950760437470     0.00000000000000
   20     0.00000000000000    -0.38147618818695     0.54249367568490    -0.00000000000000    -0.08932535607398
   21    -0.00000000000000    -0.09348296865086     0.28570504452197     0.00000000000000     0.01236002547282
   22     0.00000000000000    -0.07318054152243    -0.47814486880515     0.00000000000000    -0.37989519425313
   23     0.00000000000000    -0.41503768326772     0.25206173718392    -0.00000000000000    -0.32673758252842
   24    -0.24786860445088     0.00000000000000    -0.00000000000000    -0.37950760437470     0.00000000000000

                11                  12                  13                  14                  15

    1    -0.00000000000000     0.00000000000000     0.11912467226209    -0.00000000000000    -0.47654688552409
    2     0.00000000000000    -0.00000000000000    -0.01538568816474    -0.00000000000000    -0.15166090746329
    3    -0.00000000000001     0.00000000000000     0.31507113588490     0.00000000000000    -0.48797405402718
    4    -0.00000000000000     0.00000000000000    -0.01109887550601     0.00000000000000    -0.08456492769380
    5    -0.09052925161764     0.00000000000000    -0.00000000000000     0.00000000000000    -0.15611348833186
    6    -0.00000000000000    -0.07960565030802     0.00000000000000    -0.00000000000000    -0.00000000000000
    7    -0.00000000000000     0.00000000000000     0.12010250458106    -0.00000000000000    -0.38147618818695
    8     0.33970855447915    -0.00000000000000    -0.00000000000000    -0.00000000000000    -0.54249367568489
    9    -0.00000000000000     0.09627894770281     0.00000000000000     0.00000000000000     0.00000000000000
   10     0.00000000000000    -0.00000000000000    -0.04496792302029    -0.00000000000000    -0.08932535607397
   11    -4.10969916092011    -0.00000000000000    -0.00000000000000     0.00000000000000    -0.57345583047391
   12    -0.00000000000000    -4.16779289893971     0.00000000000000    -0.00000000000000    -0.00000000000000
   13    -0.00000000000000     0.00000000000000    -4.16032079134160    -0.00000000000000    -0.36728419504794
   14     0.00000000000000    -0.00000000000000    -0.00000000000000    -4.13937975467779    -0.00000000000000
   15    -0.57345583047391    -0.00000000000000    -0.36728419504794    -0.00000000000000    -4.06803307098129
   16    -0.06318151861878     0.00000000000000     0.02155192887189     0.00000000000000    -0.35125761385515
   17     0.06835912984872     0.00000000000000     0.30208360488244     0.00000000000000     0.15136232405886
   18     0.33830100300789    -0.00000000000000    -0.03792747592630    -0.00000000000000     0.22577175757446
   19    -0.00000000000000    -0.38448953422791     0.00000000000000    -0.45814345902330    -0.00000000000000
   20     0.57345583047392    -0.00000000000000    -0.36728419504794    -0.00000000000000    -0.08265819382231
   21     0.06318151861878    -0.00000000000000     0.02155192887190     0.00000000000000    -0.17446264022997
   22    -0.06835912984871    -0.00000000000000     0.30208360488244     0.00000000000000     0.10650709117776
   23     0.33830100300789    -0.00000000000000     0.03792747592630    -0.00000000000000    -0.09943933318378
[...]
 a: 2.00000  b:-0.00213

 -0.09750 = (-0.48340 + 0.28840)/2.0
 sum -  nocc_ = 0.00000000
 ef = -0.09750 sum = 5.00000 

 Iter: 33  T:      500.000  val:-0.097500  sumni 0.00000
 ne = 5.0000

 iter:34  failiter:34  energy:    -85.220706777403  total:    -76.026793657261  error:     -0.000000034129
 In Bisection function HOMO = -20.550  LUMO =  4.147

 -8.20149 = (-20.55044 + 4.14745)/2.0
 sum -  nocc_ = -4.00000000
 On Iteration in Bisection 0
 a: -4.00000  b:-4.50000

 -2.02702 = (-8.20149 + 4.14745)/2.0
 sum -  nocc_ = -4.00000000
 On Iteration in Bisection 1
 a: -4.00000  b:-4.00000

 1.06021 = (-2.02702 + 4.14745)/2.0
 sum -  nocc_ = 4.00000000
 On Iteration in Bisection 2
 a: 4.00000  b:-4.00000

 -0.48340 = (-2.02702 + 1.06021)/2.0
 sum -  nocc_ = -0.00212827
 On Iteration in Bisection 3
 a: -0.00213  b:-4.00000

 0.28840 = (-0.48340 + 1.06021)/2.0
 sum -  nocc_ = 2.00000000
 On Iteration in Bisection 4
 a: 2.00000  b:-0.00213

 -0.09750 = (-0.48340 + 0.28840)/2.0
 sum -  nocc_ = 0.00000000
 ef = -0.09750 sum = 5.00000 

 Iter: 34  T:      500.000  val:-0.097500  sumni 0.00000
 ne = 5.0000

 iter:35  failiter:35  energy:    -85.220706757726  total:    -76.026793637584  error:      0.000000019677
 In Bisection function HOMO = -20.550  LUMO =  4.147

 -8.20149 = (-20.55044 + 4.14745)/2.0
 sum -  nocc_ = -4.00000000
 On Iteration in Bisection 0
 a: -4.00000  b:-4.50000

 -2.02702 = (-8.20149 + 4.14745)/2.0
 sum -  nocc_ = -4.00000000
 On Iteration in Bisection 1
 a: -4.00000  b:-4.00000

 1.06021 = (-2.02702 + 4.14745)/2.0
 sum -  nocc_ = 4.00000000
 On Iteration in Bisection 2
 a: 4.00000  b:-4.00000

 -0.48340 = (-2.02702 + 1.06021)/2.0
 sum -  nocc_ = -0.00212827
 On Iteration in Bisection 3
 a: -0.00213  b:-4.00000

 0.28840 = (-0.48340 + 1.06021)/2.0
 sum -  nocc_ = 2.00000000
 On Iteration in Bisection 4
 a: 2.00000  b:-0.00213

 -0.09750 = (-0.48340 + 0.28840)/2.0
 sum -  nocc_ = 0.00000000
 ef = -0.09750 sum = 5.00000 

 Iter: 35  T:      500.000  val:-0.097500  sumni 0.00000
 ne = 5.0000

 iter:36  failiter:36  energy:    -85.220706769070  total:    -76.026793648928  error:     -0.000000011344
 In Bisection function HOMO = -20.550  LUMO =  4.147

 -8.20149 = (-20.55044 + 4.14745)/2.0
 sum -  nocc_ = -4.00000000
 On Iteration in Bisection 0
 a: -4.00000  b:-4.50000

 -2.02702 = (-8.20149 + 4.14745)/2.0
 sum -  nocc_ = -4.00000000
 On Iteration in Bisection 1
 a: -4.00000  b:-4.00000

 1.06021 = (-2.02702 + 4.14745)/2.0
 sum -  nocc_ = 4.00000000
 On Iteration in Bisection 2
 a: 4.00000  b:-4.00000

 -0.48340 = (-2.02702 + 1.06021)/2.0
 sum -  nocc_ = -0.00212827
 On Iteration in Bisection 3
 a: -0.00213  b:-4.00000

 0.28840 = (-0.48340 + 1.06021)/2.0
 sum -  nocc_ = 2.00000000
 On Iteration in Bisection 4
 a: 2.00000  b:-0.00213

 -0.09750 = (-0.48340 + 0.28840)/2.0
 sum -  nocc_ = 0.00000000
 ef = -0.09750 sum = 5.00000 

 Iter: 36  T:      500.000  val:-0.097500  sumni 0.00000
 ne = 5.0000

 iter:37  failiter:37  energy:    -85.220706762530  total:    -76.026793642388  error:      0.000000006540
 In Bisection function HOMO = -20.550  LUMO =  4.147

 -8.20149 = (-20.55044 + 4.14745)/2.0
 sum -  nocc_ = -4.00000000
 On Iteration in Bisection 0
 a: -4.00000  b:-4.50000

 -2.02702 = (-8.20149 + 4.14745)/2.0
 sum -  nocc_ = -4.00000000
 On Iteration in Bisection 1
 a: -4.00000  b:-4.00000

 1.06021 = (-2.02702 + 4.14745)/2.0
 sum -  nocc_ = 4.00000000
 On Iteration in Bisection 2
 a: 4.00000  b:-4.00000

 -0.48340 = (-2.02702 + 1.06021)/2.0
 sum -  nocc_ = -0.00212827
 On Iteration in Bisection 3
 a: -0.00213  b:-4.00000

 0.28840 = (-0.48340 + 1.06021)/2.0
 sum -  nocc_ = 2.00000000
 On Iteration in Bisection 4
 a: 2.00000  b:-0.00213

 -0.09750 = (-0.48340 + 0.28840)/2.0
 sum -  nocc_ = 0.00000000
 ef = -0.09750 sum = 5.00000 

 Iter: 37  T:      500.000  val:-0.097500  sumni 0.00000
 ne = 5.0000

 iter:38  failiter:38  energy:    -85.220706766301  total:    -76.026793646158  error:     -0.000000003771
 In Bisection function HOMO = -20.550  LUMO =  4.147

 -8.20149 = (-20.55044 + 4.14745)/2.0
 sum -  nocc_ = -4.00000000
 On Iteration in Bisection 0
 a: -4.00000  b:-4.50000

 -2.02702 = (-8.20149 + 4.14745)/2.0
 sum -  nocc_ = -4.00000000
 On Iteration in Bisection 1
 a: -4.00000  b:-4.00000

 1.06021 = (-2.02702 + 4.14745)/2.0
 sum -  nocc_ = 4.00000000
 On Iteration in Bisection 2
 a: 4.00000  b:-4.00000

 -0.48340 = (-2.02702 + 1.06021)/2.0
 sum -  nocc_ = -0.00212827
 On Iteration in Bisection 3
 a: -0.00213  b:-4.00000

 0.28840 = (-0.48340 + 1.06021)/2.0
 sum -  nocc_ = 2.00000000
 On Iteration in Bisection 4
 a: 2.00000  b:-0.00213

 -0.09750 = (-0.48340 + 0.28840)/2.0
 sum -  nocc_ = 0.00000000
 ef = -0.09750 sum = 5.00000 

 Iter: 38  T:      500.000  val:-0.097500  sumni 0.00000
 ne = 5.0000

 iter:39  failiter:39  energy:    -85.220706764127  total:    -76.026793643985  error:      0.000000002174
 In Bisection function HOMO = -20.550  LUMO =  4.147

 -8.20149 = (-20.55044 + 4.14745)/2.0
 sum -  nocc_ = -4.00000000
 On Iteration in Bisection 0
 a: -4.00000  b:-4.50000

 -2.02702 = (-8.20149 + 4.14745)/2.0
 sum -  nocc_ = -4.00000000
 On Iteration in Bisection 1
 a: -4.00000  b:-4.00000

 1.06021 = (-2.02702 + 4.14745)/2.0
 sum -  nocc_ = 4.00000000
 On Iteration in Bisection 2
 a: 4.00000  b:-4.00000

 -0.48340 = (-2.02702 + 1.06021)/2.0
 sum -  nocc_ = -0.00212827
 On Iteration in Bisection 3
 a: -0.00213  b:-4.00000

 0.28840 = (-0.48340 + 1.06021)/2.0
 sum -  nocc_ = 2.00000000
 On Iteration in Bisection 4
 a: 2.00000  b:-0.00213

 -0.09750 = (-0.48340 + 0.28840)/2.0
 sum -  nocc_ = 0.00000000
 ef = -0.09750 sum = 5.00000 

 Iter: 39  T:      500.000  val:-0.097500  sumni 0.00000
 ne = 5.0000

 iter:40  failiter:40  energy:    -85.220706765380  total:    -76.026793645238  error:     -0.000000001253
 In Bisection function HOMO = -20.550  LUMO =  4.147

 -8.20149 = (-20.55044 + 4.14745)/2.0
 sum -  nocc_ = -4.00000000
 On Iteration in Bisection 0
 a: -4.00000  b:-4.50000

 -2.02702 = (-8.20149 + 4.14745)/2.0
 sum -  nocc_ = -4.00000000
 On Iteration in Bisection 1
 a: -4.00000  b:-4.00000

 1.06021 = (-2.02702 + 4.14745)/2.0
 sum -  nocc_ = 4.00000000
 On Iteration in Bisection 2
 a: 4.00000  b:-4.00000

 -0.48340 = (-2.02702 + 1.06021)/2.0
 sum -  nocc_ = -0.00212827
 On Iteration in Bisection 3
 a: -0.00213  b:-4.00000

 0.28840 = (-0.48340 + 1.06021)/2.0
 sum -  nocc_ = 2.00000000
 On Iteration in Bisection 4
 a: 2.00000  b:-0.00213

 -0.09750 = (-0.48340 + 0.28840)/2.0
 sum -  nocc_ = 0.00000000
 ef = -0.09750 sum = 5.00000 

 Iter: 40  T:      500.000  val:-0.097500  sumni 0.00000
 ne = 5.0000

 iter:41  failiter:41  energy:    -85.220706764657  total:    -76.026793644515  error:      0.000000000723
 In Bisection function HOMO = -20.550  LUMO =  4.147

 -8.20149 = (-20.55044 + 4.14745)/2.0
 sum -  nocc_ = -4.00000000
 On Iteration in Bisection 0
 a: -4.00000  b:-4.50000

 -2.02702 = (-8.20149 + 4.14745)/2.0
 sum -  nocc_ = -4.00000000
 On Iteration in Bisection 1
 a: -4.00000  b:-4.00000

 1.06021 = (-2.02702 + 4.14745)/2.0
 sum -  nocc_ = 4.00000000
 On Iteration in Bisection 2
 a: 4.00000  b:-4.00000

 -0.48340 = (-2.02702 + 1.06021)/2.0
 sum -  nocc_ = -0.00212827
 On Iteration in Bisection 3
 a: -0.00213  b:-4.00000

 0.28840 = (-0.48340 + 1.06021)/2.0
 sum -  nocc_ = 2.00000000
 On Iteration in Bisection 4
 a: 2.00000  b:-0.00213

 -0.09750 = (-0.48340 + 0.28840)/2.0
 sum -  nocc_ = 0.00000000
 ef = -0.09750 sum = 5.00000 

 Iter: 41  T:      500.000  val:-0.097500  sumni 0.00000
 ne = 5.0000

 iter:42  failiter:42  energy:    -85.220706765074  total:    -76.026793644932  error:     -0.000000000417
 In Bisection function HOMO = -20.550  LUMO =  4.147

 -8.20149 = (-20.55044 + 4.14745)/2.0
 sum -  nocc_ = -4.00000000
 On Iteration in Bisection 0
 a: -4.00000  b:-4.50000

 -2.02702 = (-8.20149 + 4.14745)/2.0
 sum -  nocc_ = -4.00000000
 On Iteration in Bisection 1
 a: -4.00000  b:-4.00000

 1.06021 = (-2.02702 + 4.14745)/2.0
 sum -  nocc_ = 4.00000000
 On Iteration in Bisection 2
 a: 4.00000  b:-4.00000

 -0.48340 = (-2.02702 + 1.06021)/2.0
 sum -  nocc_ = -0.00212827
 On Iteration in Bisection 3
 a: -0.00213  b:-4.00000

 0.28840 = (-0.48340 + 1.06021)/2.0
 sum -  nocc_ = 2.00000000
 On Iteration in Bisection 4
 a: 2.00000  b:-0.00213

 -0.09750 = (-0.48340 + 0.28840)/2.0
 sum -  nocc_ = 0.00000000
 ef = -0.09750 sum = 5.00000 

 Iter: 42  T:      500.000  val:-0.097500  sumni 0.00000
 ne = 5.0000

 iter:43  failiter:43  energy:    -85.220706764834  total:    -76.026793644692  error:      0.000000000240
 In Bisection function HOMO = -20.550  LUMO =  4.147

 -8.20149 = (-20.55044 + 4.14745)/2.0
 sum -  nocc_ = -4.00000000
 On Iteration in Bisection 0
 a: -4.00000  b:-4.50000

 -2.02702 = (-8.20149 + 4.14745)/2.0
 sum -  nocc_ = -4.00000000
 On Iteration in Bisection 1
 a: -4.00000  b:-4.00000

 1.06021 = (-2.02702 + 4.14745)/2.0
 sum -  nocc_ = 4.00000000
 On Iteration in Bisection 2
 a: 4.00000  b:-4.00000

 -0.48340 = (-2.02702 + 1.06021)/2.0
 sum -  nocc_ = -0.00212827
 On Iteration in Bisection 3
 a: -0.00213  b:-4.00000

 0.28840 = (-0.48340 + 1.06021)/2.0
 sum -  nocc_ = 2.00000000
 On Iteration in Bisection 4
 a: 2.00000  b:-0.00213

 -0.09750 = (-0.48340 + 0.28840)/2.0
 sum -  nocc_ = 0.00000000
 ef = -0.09750 sum = 5.00000 

 Iter: 43  T:      500.000  val:-0.097500  sumni 0.00000
 ne = 5.0000

 iter:44  failiter:44  energy:    -85.220706764972  total:    -76.026793644830  error:     -0.000000000139
 In Bisection function HOMO = -20.550  LUMO =  4.147

 -8.20149 = (-20.55044 + 4.14745)/2.0
 sum -  nocc_ = -4.00000000
 On Iteration in Bisection 0
 a: -4.00000  b:-4.50000

 -2.02702 = (-8.20149 + 4.14745)/2.0
 sum -  nocc_ = -4.00000000
 On Iteration in Bisection 1
 a: -4.00000  b:-4.00000

 1.06021 = (-2.02702 + 4.14745)/2.0
 sum -  nocc_ = 4.00000000
 On Iteration in Bisection 2
 a: 4.00000  b:-4.00000

 -0.48340 = (-2.02702 + 1.06021)/2.0
 sum -  nocc_ = -0.00212827
 On Iteration in Bisection 3
 a: -0.00213  b:-4.00000

 0.28840 = (-0.48340 + 1.06021)/2.0
 sum -  nocc_ = 2.00000000
 On Iteration in Bisection 4
 a: 2.00000  b:-0.00213

 -0.09750 = (-0.48340 + 0.28840)/2.0
 sum -  nocc_ = 0.00000000
 ef = -0.09750 sum = 5.00000 

 Iter: 44  T:      500.000  val:-0.097500  sumni 0.00000
 ne = 5.0000

 iter:45  failiter:45  energy:    -85.220706764892  total:    -76.026793644750  error:      0.000000000080
 In Bisection function HOMO = -20.550  LUMO =  4.147

 -8.20149 = (-20.55044 + 4.14745)/2.0
 sum -  nocc_ = -4.00000000
 On Iteration in Bisection 0
 a: -4.00000  b:-4.50000

 -2.02702 = (-8.20149 + 4.14745)/2.0
 sum -  nocc_ = -4.00000000
 On Iteration in Bisection 1
 a: -4.00000  b:-4.00000

 1.06021 = (-2.02702 + 4.14745)/2.0
 sum -  nocc_ = 4.00000000
 On Iteration in Bisection 2
 a: 4.00000  b:-4.00000

 -0.48340 = (-2.02702 + 1.06021)/2.0
 sum -  nocc_ = -0.00212827
 On Iteration in Bisection 3
 a: -0.00213  b:-4.00000

 0.28840 = (-0.48340 + 1.06021)/2.0
 sum -  nocc_ = 2.00000000
 On Iteration in Bisection 4
 a: 2.00000  b:-0.00213

 -0.09750 = (-0.48340 + 0.28840)/2.0
 sum -  nocc_ = 0.00000000
 ef = -0.09750 sum = 5.00000 

 Iter: 45  T:      500.000  val:-0.097500  sumni 0.00000
 ne = 5.0000

 iter:46  failiter:46  energy:    -85.220706764938  total:    -76.026793644796  error:     -0.000000000046
 In Bisection function HOMO = -20.550  LUMO =  4.147

 -8.20149 = (-20.55044 + 4.14745)/2.0
 sum -  nocc_ = -4.00000000
 On Iteration in Bisection 0
 a: -4.00000  b:-4.50000

 -2.02702 = (-8.20149 + 4.14745)/2.0
 sum -  nocc_ = -4.00000000
 On Iteration in Bisection 1
 a: -4.00000  b:-4.00000

 1.06021 = (-2.02702 + 4.14745)/2.0
 sum -  nocc_ = 4.00000000
 On Iteration in Bisection 2
 a: 4.00000  b:-4.00000

 -0.48340 = (-2.02702 + 1.06021)/2.0
 sum -  nocc_ = -0.00212827
 On Iteration in Bisection 3
 a: -0.00213  b:-4.00000

 0.28840 = (-0.48340 + 1.06021)/2.0
 sum -  nocc_ = 2.00000000
 On Iteration in Bisection 4
 a: 2.00000  b:-0.00213

 -0.09750 = (-0.48340 + 0.28840)/2.0
 sum -  nocc_ = 0.00000000
 ef = -0.09750 sum = 5.00000 

 Iter: 46  T:      500.000  val:-0.097500  sumni 0.00000
 ne = 5.0000

 iter:47  failiter:47  energy:    -85.220706764912  total:    -76.026793644770  error:      0.000000000027
 In Bisection function HOMO = -20.550  LUMO =  4.147

 -8.20149 = (-20.55044 + 4.14745)/2.0
 sum -  nocc_ = -4.00000000
 On Iteration in Bisection 0
 a: -4.00000  b:-4.50000

 -2.02702 = (-8.20149 + 4.14745)/2.0
 sum -  nocc_ = -4.00000000
 On Iteration in Bisection 1
 a: -4.00000  b:-4.00000

 1.06021 = (-2.02702 + 4.14745)/2.0
 sum -  nocc_ = 4.00000000
 On Iteration in Bisection 2
 a: 4.00000  b:-4.00000

 -0.48340 = (-2.02702 + 1.06021)/2.0
 sum -  nocc_ = -0.00212827
 On Iteration in Bisection 3
 a: -0.00213  b:-4.00000

 0.28840 = (-0.48340 + 1.06021)/2.0
 sum -  nocc_ = 2.00000000
 On Iteration in Bisection 4
 a: 2.00000  b:-0.00213

 -0.09750 = (-0.48340 + 0.28840)/2.0
 sum -  nocc_ = 0.00000000
 ef = -0.09750 sum = 5.00000 

 Iter: 47  T:      500.000  val:-0.097500  sumni 0.00000
 ne = 5.0000

 iter:48  failiter:48  energy:    -85.220706764927  total:    -76.026793644785  error:     -0.000000000015
 In Bisection function HOMO = -20.550  LUMO =  4.147

 -8.20149 = (-20.55044 + 4.14745)/2.0
 sum -  nocc_ = -4.00000000
 On Iteration in Bisection 0
 a: -4.00000  b:-4.50000

 -2.02702 = (-8.20149 + 4.14745)/2.0
 sum -  nocc_ = -4.00000000
 On Iteration in Bisection 1
 a: -4.00000  b:-4.00000

 1.06021 = (-2.02702 + 4.14745)/2.0
 sum -  nocc_ = 4.00000000
 On Iteration in Bisection 2
 a: 4.00000  b:-4.00000

 -0.48340 = (-2.02702 + 1.06021)/2.0
 sum -  nocc_ = -0.00212827
 On Iteration in Bisection 3
 a: -0.00213  b:-4.00000

 0.28840 = (-0.48340 + 1.06021)/2.0
 sum -  nocc_ = 2.00000000
 On Iteration in Bisection 4
 a: 2.00000  b:-0.00213

 -0.09750 = (-0.48340 + 0.28840)/2.0
 sum -  nocc_ = 0.00000000
 ef = -0.09750 sum = 5.00000 

 Iter: 48  T:      500.000  val:-0.097500  sumni 0.00000
 ne = 5.0000

 iter:49  failiter:49  energy:    -85.220706764918  total:    -76.026793644776  error:      0.000000000009
 In Bisection function HOMO = -20.550  LUMO =  4.147

 -8.20149 = (-20.55044 + 4.14745)/2.0
 sum -  nocc_ = -4.00000000
 On Iteration in Bisection 0
 a: -4.00000  b:-4.50000

 -2.02702 = (-8.20149 + 4.14745)/2.0
 sum -  nocc_ = -4.00000000
 On Iteration in Bisection 1
 a: -4.00000  b:-4.00000

 1.06021 = (-2.02702 + 4.14745)/2.0
 sum -  nocc_ = 4.00000000
 On Iteration in Bisection 2
 a: 4.00000  b:-4.00000

 -0.48340 = (-2.02702 + 1.06021)/2.0
 sum -  nocc_ = -0.00212827
 On Iteration in Bisection 3
 a: -0.00213  b:-4.00000

 0.28840 = (-0.48340 + 1.06021)/2.0
 sum -  nocc_ = 2.00000000
 On Iteration in Bisection 4
 a: 2.00000  b:-0.00213

 -0.09750 = (-0.48340 + 0.28840)/2.0
 sum -  nocc_ = 0.00000000
 ef = -0.09750 sum = 5.00000 

 Iter: 49  T:      500.000  val:-0.097500  sumni 0.00000
 ne = 5.0000

 iter:50  failiter:50  energy:    -85.220706764923  total:    -76.026793644781  error:     -0.000000000005
 In Bisection function HOMO = -20.550  LUMO =  4.147

 -8.20149 = (-20.55044 + 4.14745)/2.0
 sum -  nocc_ = -4.00000000
 On Iteration in Bisection 0
 a: -4.00000  b:-4.50000

 -2.02702 = (-8.20149 + 4.14745)/2.0
 sum -  nocc_ = -4.00000000
 On Iteration in Bisection 1
 a: -4.00000  b:-4.00000

 1.06021 = (-2.02702 + 4.14745)/2.0
 sum -  nocc_ = 4.00000000
 On Iteration in Bisection 2
 a: 4.00000  b:-4.00000

 -0.48340 = (-2.02702 + 1.06021)/2.0
 sum -  nocc_ = -0.00212827
 On Iteration in Bisection 3
 a: -0.00213  b:-4.00000

 0.28840 = (-0.48340 + 1.06021)/2.0
 sum -  nocc_ = 2.00000000
 On Iteration in Bisection 4
 a: 2.00000  b:-0.00213

 -0.09750 = (-0.48340 + 0.28840)/2.0
 sum -  nocc_ = 0.00000000
 ef = -0.09750 sum = 5.00000 

 Iter: 50  T:      500.000  val:-0.097500  sumni 0.00000
 ne = 5.0000

 iter:51  failiter:51  energy:    -85.220706764920  total:    -76.026793644778  error:      0.000000000003
 In Bisection function HOMO = -20.550  LUMO =  4.147

 -8.20149 = (-20.55044 + 4.14745)/2.0
 sum -  nocc_ = -4.00000000
 On Iteration in Bisection 0
 a: -4.00000  b:-4.50000

 -2.02702 = (-8.20149 + 4.14745)/2.0
 sum -  nocc_ = -4.00000000
 On Iteration in Bisection 1
 a: -4.00000  b:-4.00000

 1.06021 = (-2.02702 + 4.14745)/2.0
 sum -  nocc_ = 4.00000000
 On Iteration in Bisection 2
 a: 4.00000  b:-4.00000

 -0.48340 = (-2.02702 + 1.06021)/2.0
 sum -  nocc_ = -0.00212827
 On Iteration in Bisection 3
 a: -0.00213  b:-4.00000

 0.28840 = (-0.48340 + 1.06021)/2.0
 sum -  nocc_ = 2.00000000
 On Iteration in Bisection 4
 a: 2.00000  b:-0.00213

 -0.09750 = (-0.48340 + 0.28840)/2.0
 sum -  nocc_ = 0.00000000
 ef = -0.09750 sum = 5.00000 

 Iter: 51  T:      500.000  val:-0.097500  sumni 0.00000
 ne = 5.0000

 iter:52  failiter:52  energy:    -85.220706764922  total:    -76.026793644780  error:     -0.000000000002
 In Bisection function HOMO = -20.550  LUMO =  4.147

 -8.20149 = (-20.55044 + 4.14745)/2.0
 sum -  nocc_ = -4.00000000
 On Iteration in Bisection 0
 a: -4.00000  b:-4.50000

 -2.02702 = (-8.20149 + 4.14745)/2.0
 sum -  nocc_ = -4.00000000
 On Iteration in Bisection 1
 a: -4.00000  b:-4.00000

 1.06021 = (-2.02702 + 4.14745)/2.0
 sum -  nocc_ = 4.00000000
 On Iteration in Bisection 2
 a: 4.00000  b:-4.00000

 -0.48340 = (-2.02702 + 1.06021)/2.0
 sum -  nocc_ = -0.00212827
 On Iteration in Bisection 3
 a: -0.00213  b:-4.00000

 0.28840 = (-0.48340 + 1.06021)/2.0
 sum -  nocc_ = 2.00000000
 On Iteration in Bisection 4
 a: 2.00000  b:-0.00213

 -0.09750 = (-0.48340 + 0.28840)/2.0
 sum -  nocc_ = 0.00000000
 ef = -0.09750 sum = 5.00000 

 Iter: 52  T:      500.000  val:-0.097500  sumni 0.00000
 ne = 5.0000

 iter:53  failiter:53  energy:    -85.220706764921  total:    -76.026793644779  error:      0.000000000001
 In Bisection function HOMO = -20.550  LUMO =  4.147

 -8.20149 = (-20.55044 + 4.14745)/2.0
 sum -  nocc_ = -4.00000000
 On Iteration in Bisection 0
 a: -4.00000  b:-4.50000

 -2.02702 = (-8.20149 + 4.14745)/2.0
 sum -  nocc_ = -4.00000000
 On Iteration in Bisection 1
 a: -4.00000  b:-4.00000

 1.06021 = (-2.02702 + 4.14745)/2.0
 sum -  nocc_ = 4.00000000
 On Iteration in Bisection 2
 a: 4.00000  b:-4.00000

 -0.48340 = (-2.02702 + 1.06021)/2.0
 sum -  nocc_ = -0.00212827
 On Iteration in Bisection 3
 a: -0.00213  b:-4.00000

 0.28840 = (-0.48340 + 1.06021)/2.0
 sum -  nocc_ = 2.00000000
 On Iteration in Bisection 4
 a: 2.00000  b:-0.00213

 -0.09750 = (-0.48340 + 0.28840)/2.0
 sum -  nocc_ = 0.00000000
 ef = -0.09750 sum = 5.00000 

 Iter: 53  T:      500.000  val:-0.097500  sumni 0.00000
 ne = 5.0000

 iter:54  failiter:54  energy:    -85.220706764922  total:    -76.026793644780  error:     -0.000000000000
 FTHFEnergy =   -76.026794
 FD_dis[0] = 1.00000000 with -20.550438 eig value
 FD_dis[1] = 1.00000000 with -1.336658 eig value
 FD_dis[2] = 1.00000000 with -0.699262 eig value
 FD_dis[3] = 1.00000000 with -0.566562 eig value
 FD_dis[4] = 1.00000000 with -0.493142 eig value
 FD_dis[5] = 0.00000000 with 0.185559 eig value
 FD_dis[6] = 0.00000000 with 0.256244 eig value
 FD_dis[7] = 0.00000000 with 0.789271 eig value
 FD_dis[8] = 0.00000000 with 0.854276 eig value
 FD_dis[9] = 0.00000000 with 1.163512 eig value
 FD_dis[10] = 0.00000000 with 1.200385 eig value
 FD_dis[11] = 0.00000000 with 1.253306 eig value
 FD_dis[12] = 0.00000000 with 1.444602 eig value
 FD_dis[13] = 0.00000000 with 1.476247 eig value
 FD_dis[14] = 0.00000000 with 1.674666 eig value
 FD_dis[15] = 0.00000000 with 1.867313 eig value
 FD_dis[16] = 0.00000000 with 1.934850 eig value
 FD_dis[17] = 0.00000000 with 2.452768 eig value
 FD_dis[18] = 0.00000000 with 2.490253 eig value
 FD_dis[19] = 0.00000000 with 3.285619 eig value
 FD_dis[20] = 0.00000000 with 3.338865 eig value
 FD_dis[21] = 0.00000000 with 3.510478 eig value
 FD_dis[22] = 0.00000000 with 3.865845 eig value
 FD_dis[23] = 0.00000000 with 4.147450 eig value
*** PSI4 exiting successfully. Buy a developer a beer!
