    -----------------------------------------------------------------------
          PSI4: An Open-Source Ab Initio Electronic Structure Package
                              PSI 4.0 Driver

               Git: Rev {master} 556e8139d3cfa1f96ccffe2cdf22cc56a185d2b2

    J. M. Turney, A. C. Simmonett, R. M. Parrish, E. G. Hohenstein,
    F. A. Evangelista, J. T. Fermann, B. J. Mintz, L. A. Burns, J. J. Wilke,
    M. L. Abrams, N. J. Russ, M. L. Leininger, C. L. Janssen, E. T. Seidl,
    W. D. Allen, H. F. Schaefer, R. A. King, E. F. Valeev, C. D. Sherrill,
    and T. D. Crawford, WIREs Comput. Mol. Sci. 2, 556-565 (2012)
    (doi: 10.1002/wcms.93)

                         Additional Contributions by
    A. E. DePrince, M. Saitow, U. Bozkaya, A. Yu. Sokolov
    -----------------------------------------------------------------------

    Process ID:  14564
    PSI4DATADIR: /Users/kevinhannon/Programs/psi4cmake/psi4/lib
    Memory level set to 256.000 MB

  ==> Input File <==

--------------------------------------------------------------------------

# PYTHONPATH must include directory above plugin directory.
#     Define either externally or here, then import plugin.
sys.path.insert(0, '/Users/kevinhannon/Programs/Quantum_Programs/Quantum-Programs/GS/')
import scf

molecule {
0 1
H
H 1 1.30000
symmetry c1
units angstrom
}


set {
  basis cc-pvdz
  reference rhf
  scf_type  pk
}

set scf {
  DO_FTHF true
  MAX_ITER 130
  MAX_TEMP 20000
  TEMP_INCREMENT 0
  bisect  true
  bisect_iter  40
}
energy('rhf')
energy('scf')


--------------------------------------------------------------------------

*** tstart() called on Kevins-MacBook-Pro.local
*** at Sun Apr 12 15:45:58 2015

/Users/kevinhannon/Programs/Quantum_Programs/Quantum-Programs/GS/scf/scf.so loaded.

*** tstart() called on Kevins-MacBook-Pro.local
*** at Sun Apr 12 15:45:58 2015


         ---------------------------------------------------------
                                   SCF
            by Justin Turney, Rob Parrish, and Andy Simmonett
                              RHF Reference
                        1 Threads,    256 MiB Core
         ---------------------------------------------------------

  ==> Geometry <==

    Molecular point group: c1
    Full point group: D_inf_h

    Geometry (in Angstrom), charge = 0, multiplicity = 1:

       Center              X                  Y                   Z       
    ------------   -----------------  -----------------  -----------------
           H          0.000000000000     0.000000000000    -0.650000000000
           H          0.000000000000     0.000000000000     0.650000000000

  Running in c1 symmetry.

  Rotational constants: A = ************  B =     19.79496  C =     19.79496 [cm^-1]
  Rotational constants: A = ************  B = 593437.99140  C = 593437.99140 [MHz]
  Nuclear repulsion =    0.407059391223077

  Charge       = 0
  Multiplicity = 1
  Electrons    = 2
  Nalpha       = 1
  Nbeta        = 1

  ==> Algorithm <==

  SCF Algorithm Type is PK.
  DIIS enabled.
  MOM disabled.
  Fractional occupation disabled.
  Guess Type is CORE.
  Energy threshold   = 1.00e-06
  Density threshold  = 1.00e-06
  Integral threshold = 0.00e+00

  ==> Primary Basis <==

  Basis Set: CC-PVDZ
    Number of shells: 6
    Number of basis function: 10
    Number of Cartesian functions: 10
    Spherical Harmonics?: true
    Max angular momentum: 1

  ==> Pre-Iterations <==

   -------------------------------------------------------
    Irrep   Nso     Nmo     Nalpha   Nbeta   Ndocc  Nsocc
   -------------------------------------------------------
     A         10      10       0       0       0       0
   -------------------------------------------------------
    Total      10      10       1       1       1       0
   -------------------------------------------------------

  Starting with a DF guess...

 OEINTS: Overlap, kinetic, potential, dipole, and quadrupole integrals
         stored in file 35.

  ==> Integral Setup <==

  ==> DFJK: Density-Fitted J/K Matrices <==

    J tasked:                  Yes
    K tasked:                  Yes
    wK tasked:                  No
    OpenMP threads:              1
    Integrals threads:           1
    Memory (MB):               183
    Algorithm:                Core
    Integral Cache:           NONE
    Schwarz Cutoff:          1E-12
    Fitting Condition:       1E-12

   => Auxiliary Basis Set <=

  Basis Set: 
    Number of shells: 18
    Number of basis function: 46
    Number of Cartesian functions: 50
    Spherical Harmonics?: true
    Max angular momentum: 2

  Minimum eigenvalue in the overlap matrix is 1.5162619203E-01.
  Using Symmetric Orthogonalization.
  SCF Guess: Core (One-Electron) Hamiltonian.

  ==> Iterations <==

                           Total Energy        Delta E     RMS |[F,P]|

   @DF-RHF iter   1:    -1.00104870233776   -1.00105e+00   1.90124e-02 
   @DF-RHF iter   2:    -1.03972424505430   -3.86755e-02   3.30166e-03 DIIS
   @DF-RHF iter   3:    -1.04094139821550   -1.21715e-03   1.29684e-04 DIIS
   @DF-RHF iter   4:    -1.04094262451516   -1.22630e-06   4.17101e-06 DIIS
   @DF-RHF iter   5:    -1.04094262648419   -1.96903e-09   2.32386e-09 DIIS

  DF guess converged.

  ==> Integral Setup <==

 MINTS: Wrapper to libmints.
   by Justin Turney

   Calculation information:
      Number of atoms:                   2
      Number of AO shells:               6
      Number of SO shells:               6
      Number of primitives:             10
      Number of atomic orbitals:        10
      Number of basis functions:        10

      Number of irreps:                  1
      Integral cutoff                 0.00e+00
      Number of functions per irrep: [  10 ]

 OEINTS: Overlap, kinetic, potential, dipole, and quadrupole integrals
         stored in file 35.

      Computing two-electron integrals...done
      Computed 512 non-zero two-electron integrals.
        Stored in file 33.

	Batch   1 pq = [       0,      55] index = [             0,1540]
  ==> DiskJK: Disk-Based J/K Matrices <==

    J tasked:                  Yes
    K tasked:                  Yes
    wK tasked:                  No
    Memory (MB):               183
    Schwarz Cutoff:          1E-12

   @RHF iter   6:    -1.04093873720583    3.88928e-06   1.60249e-06 DIIS
   @RHF iter   7:    -1.04093873736642   -1.60587e-10   2.53594e-07 DIIS

  ==> Post-Iterations <==

    Orbital Energies (a.u.)
    -----------------------

    Doubly Occupied:                                                      

       1A     -0.468320  

    Virtual:                                                              

       2A      0.079293     3A      0.604048     4A      0.706587  
       5A      1.336739     6A      1.336739     7A      1.387453  
       8A      1.702656     9A      1.702656    10A      2.346676  

    Final Occupation by Irrep:
              A 
    DOCC [     1 ]

  Energy converged.

  @RHF Final Energy:    -1.04093873736642

   => Energetics <=

    Nuclear Repulsion Energy =              0.4070593912230769
    One-Electron Energy =                  -1.9593559529049933
    Two-Electron Energy =                   0.5113578243154970
    DFT Exchange-Correlation Energy =       0.0000000000000000
    Empirical Dispersion Energy =           0.0000000000000000
    PCM Polarization Energy =               0.0000000000000000
    EFP Energy =                            0.0000000000000000
    Total Energy =                         -1.0409387373664194

    Alert: EFP and PCM quantities not currently incorporated into SCF psivars.

Properties will be evaluated at   0.000000,   0.000000,   0.000000 Bohr
  ==> Properties <==


Properties computed using the SCF density matrix

  Nuclear Dipole Moment: (a.u.)
     X:     0.0000      Y:     0.0000      Z:     0.0000

  Electronic Dipole Moment: (a.u.)
     X:     0.0000      Y:    -0.0000      Z:     0.0000

  Dipole Moment: (a.u.)
     X:     0.0000      Y:    -0.0000      Z:     0.0000     Total:     0.0000

  Dipole Moment: (Debye)
     X:     0.0000      Y:    -0.0000      Z:     0.0000     Total:     0.0000


  Saving occupied orbitals to File 180.

*** tstop() called on Kevins-MacBook-Pro.local at Sun Apr 12 15:45:59 2015
Module time:
	user time   =       0.19 seconds =       0.00 minutes
	system time =       0.01 seconds =       0.00 minutes
	total time  =          1 seconds =       0.02 minutes
Total time:
	user time   =       0.20 seconds =       0.00 minutes
	system time =       0.01 seconds =       0.00 minutes
	total time  =          1 seconds =       0.02 minutes

*** tstart() called on Kevins-MacBook-Pro.local
*** at Sun Apr 12 15:45:59 2015


         ---------------------------------------------------------
                                   SCF
            by Justin Turney, Rob Parrish, and Andy Simmonett
                              RHF Reference
                        1 Threads,    256 MiB Core
         ---------------------------------------------------------

  ==> Geometry <==

    Molecular point group: c1
    Full point group: D_inf_h

    Geometry (in Angstrom), charge = 0, multiplicity = 1:

       Center              X                  Y                   Z       
    ------------   -----------------  -----------------  -----------------
           H          0.000000000000     0.000000000000    -0.650000000000
           H          0.000000000000     0.000000000000     0.650000000000

  Running in c1 symmetry.

  Rotational constants: A = ************  B =     19.79496  C =     19.79496 [cm^-1]
  Rotational constants: A = ************  B = 593437.99140  C = 593437.99140 [MHz]
  Nuclear repulsion =    0.407059391223077

  Charge       = 0
  Multiplicity = 1
  Electrons    = 2
  Nalpha       = 1
  Nbeta        = 1

  ==> Algorithm <==

  SCF Algorithm Type is PK.
  DIIS enabled.
  MOM disabled.
  Fractional occupation disabled.
  Guess Type is CORE.
  Energy threshold   = 1.00e-08
  Density threshold  = 1.00e-08
  Integral threshold = 0.00e+00

  ==> Primary Basis <==

  Basis Set: CC-PVDZ
    Number of shells: 6
    Number of basis function: 10
    Number of Cartesian functions: 10
    Spherical Harmonics?: true
    Max angular momentum: 1

  ==> Pre-Iterations <==

   -------------------------------------------------------
    Irrep   Nso     Nmo     Nalpha   Nbeta   Ndocc  Nsocc
   -------------------------------------------------------
     A         10      10       0       0       0       0
   -------------------------------------------------------
    Total      10      10       1       1       1       0
   -------------------------------------------------------

  Starting with a DF guess...

 OEINTS: Overlap, kinetic, potential, dipole, and quadrupole integrals
         stored in file 35.

  ==> Integral Setup <==

  ==> DFJK: Density-Fitted J/K Matrices <==

    J tasked:                  Yes
    K tasked:                  Yes
    wK tasked:                  No
    OpenMP threads:              1
    Integrals threads:           1
    Memory (MB):               183
    Algorithm:                Core
    Integral Cache:           NONE
    Schwarz Cutoff:          1E-12
    Fitting Condition:       1E-12

   => Auxiliary Basis Set <=

  Basis Set: 
    Number of shells: 18
    Number of basis function: 46
    Number of Cartesian functions: 50
    Spherical Harmonics?: true
    Max angular momentum: 2

  Minimum eigenvalue in the overlap matrix is 1.5162619203E-01.
  Using Symmetric Orthogonalization.
  SCF Guess: Core (One-Electron) Hamiltonian.

  ==> Iterations <==

                           Total Energy        Delta E     RMS |[F,P]|

   @DF-RHF iter   1:    -1.00104870233776   -1.00105e+00   1.90124e-02 
   @DF-RHF iter   2:    -1.03972424505430   -3.86755e-02   3.30166e-03 DIIS
   @DF-RHF iter   3:    -1.04094139821550   -1.21715e-03   1.29684e-04 DIIS
   @DF-RHF iter   4:    -1.04094262451516   -1.22630e-06   4.17101e-06 DIIS
   @DF-RHF iter   5:    -1.04094262648419   -1.96903e-09   2.32386e-09 DIIS

  DF guess converged.

  ==> Integral Setup <==

 MINTS: Wrapper to libmints.
   by Justin Turney

   Calculation information:
      Number of atoms:                   2
      Number of AO shells:               6
      Number of SO shells:               6
      Number of primitives:             10
      Number of atomic orbitals:        10
      Number of basis functions:        10

      Number of irreps:                  1
      Integral cutoff                 0.00e+00
      Number of functions per irrep: [  10 ]

 OEINTS: Overlap, kinetic, potential, dipole, and quadrupole integrals
         stored in file 35.

      Computing two-electron integrals...done
      Computed 512 non-zero two-electron integrals.
        Stored in file 33.

	Batch   1 pq = [       0,      55] index = [             0,1540]
  ==> DiskJK: Disk-Based J/K Matrices <==

    J tasked:                  Yes
    K tasked:                  Yes
    wK tasked:                  No
    Memory (MB):               183
    Schwarz Cutoff:          1E-12

   @RHF iter   6:    -1.04093873720583    3.88928e-06   1.60249e-06 DIIS
   @RHF iter   7:    -1.04093873736642   -1.60587e-10   2.53594e-07 DIIS
   @RHF iter   8:    -1.04093873737056   -4.13825e-12   5.36340e-09 DIIS

  ==> Post-Iterations <==

    Orbital Energies (a.u.)
    -----------------------

    Doubly Occupied:                                                      

       1A     -0.468320  

    Virtual:                                                              

       2A      0.079293     3A      0.604048     4A      0.706588  
       5A      1.336739     6A      1.336739     7A      1.387453  
       8A      1.702656     9A      1.702656    10A      2.346676  

    Final Occupation by Irrep:
              A 
    DOCC [     1 ]

  Energy converged.

  @RHF Final Energy:    -1.04093873737056

   => Energetics <=

    Nuclear Repulsion Energy =              0.4070593912230769
    One-Electron Energy =                  -1.9593558210020765
    Two-Electron Energy =                   0.5113576924084429
    DFT Exchange-Correlation Energy =       0.0000000000000000
    Empirical Dispersion Energy =           0.0000000000000000
    PCM Polarization Energy =               0.0000000000000000
    EFP Energy =                            0.0000000000000000
    Total Energy =                         -1.0409387373705568

    Alert: EFP and PCM quantities not currently incorporated into SCF psivars.

Properties will be evaluated at   0.000000,   0.000000,   0.000000 Bohr
  ==> Properties <==


Properties computed using the SCF density matrix

  Nuclear Dipole Moment: (a.u.)
     X:     0.0000      Y:     0.0000      Z:     0.0000

  Electronic Dipole Moment: (a.u.)
     X:    -0.0000      Y:    -0.0000      Z:     0.0000

  Dipole Moment: (a.u.)
     X:    -0.0000      Y:    -0.0000      Z:     0.0000     Total:     0.0000

  Dipole Moment: (Debye)
     X:    -0.0000      Y:    -0.0000      Z:     0.0000     Total:     0.0000


  Saving occupied orbitals to File 180.

*** tstop() called on Kevins-MacBook-Pro.local at Sun Apr 12 15:45:59 2015
Module time:
	user time   =       0.19 seconds =       0.00 minutes
	system time =       0.01 seconds =       0.00 minutes
	total time  =          0 seconds =       0.00 minutes
Total time:
	user time   =       0.40 seconds =       0.01 minutes
	system time =       0.02 seconds =       0.00 minutes
	total time  =          1 seconds =       0.02 minutes
Reading options from the SCF block
Calling plugin scf.so.
    Molecular point group: c1
    Full point group: D_inf_h

    Geometry (in Angstrom), charge = 0, multiplicity = 1:

       Center              X                  Y                   Z       
    ------------   -----------------  -----------------  -----------------
           H          0.000000000000     0.000000000000    -0.650000000000
           H          0.000000000000     0.000000000000     0.650000000000


    Nuclear repulsion energy:       0.40705939

  ## Overlap (Symmetry 0) ##
  Irrep: 1 Size: 10 x 10

                 1                   2                   3                   4                   5

    1     1.00000000000000     0.68486025149275     0.00000000000000     0.00000000000000     0.00000000000000
    2     0.68486025149275     1.00000000000000     0.00000000000000     0.00000000000000     0.00000000000000
    3     0.00000000000000     0.00000000000000     1.00000000000000     0.00000000000000     0.00000000000000
    4     0.00000000000000     0.00000000000000     0.00000000000000     1.00000000000000     0.00000000000000
    5     0.00000000000000     0.00000000000000     0.00000000000000     0.00000000000000     1.00000000000000
    6     0.20341962679596     0.37947340144250     0.25907519226188     0.00000000000000     0.00000000000000
    7     0.37947340144250     0.69201954735528     0.18831370121612     0.00000000000000     0.00000000000000
    8    -0.25907519226188    -0.18831370121612    -0.37769760870770     0.00000000000000     0.00000000000000
    9     0.00000000000000     0.00000000000000     0.00000000000000     0.11149687584309     0.00000000000000
   10     0.00000000000000     0.00000000000000     0.00000000000000     0.00000000000000     0.11149687584309

                 6                   7                   8                   9                  10

    1     0.20341962679596     0.37947340144250    -0.25907519226188     0.00000000000000     0.00000000000000
    2     0.37947340144250     0.69201954735528    -0.18831370121612     0.00000000000000     0.00000000000000
    3     0.25907519226188     0.18831370121612    -0.37769760870770     0.00000000000000     0.00000000000000
    4     0.00000000000000     0.00000000000000     0.00000000000000     0.11149687584309     0.00000000000000
    5     0.00000000000000     0.00000000000000     0.00000000000000     0.00000000000000     0.11149687584309
    6     1.00000000000000     0.68486025149275    -0.00000000000000     0.00000000000000     0.00000000000000
    7     0.68486025149275     1.00000000000000    -0.00000000000000     0.00000000000000     0.00000000000000
    8    -0.00000000000000    -0.00000000000000     1.00000000000000     0.00000000000000     0.00000000000000
    9     0.00000000000000     0.00000000000000     0.00000000000000     1.00000000000000     0.00000000000000
   10     0.00000000000000     0.00000000000000     0.00000000000000     0.00000000000000     1.00000000000000



  ## Kinetic (Symmetry 0) ##
  Irrep: 1 Size: 10 x 10

                 1                   2                   3                   4                   5

    1     0.96945722711242     0.20123413106538    -0.00000000000000     0.00000000000000     0.00000000000000
    2     0.20123413106538     0.18300000000000     0.00000000000000     0.00000000000000     0.00000000000000
    3    -0.00000000000000     0.00000000000000     1.81750000000000     0.00000000000000     0.00000000000000
    4     0.00000000000000     0.00000000000000     0.00000000000000     1.81750000000000     0.00000000000000
    5     0.00000000000000     0.00000000000000     0.00000000000000     0.00000000000000     1.81750000000000
    6    -0.00453280259985     0.06735025723236     0.08818486937779     0.00000000000000     0.00000000000000
    7     0.06735025723236     0.09555875701946     0.07355779293765     0.00000000000000     0.00000000000000
    8    -0.08818486937779    -0.07355779293765    -0.43973401119056     0.00000000000000     0.00000000000000
    9     0.00000000000000     0.00000000000000     0.00000000000000     0.02482337671061     0.00000000000000
   10     0.00000000000000     0.00000000000000     0.00000000000000     0.00000000000000     0.02482337671061

                 6                   7                   8                   9                  10

    1    -0.00453280259985     0.06735025723236    -0.08818486937779     0.00000000000000     0.00000000000000
    2     0.06735025723236     0.09555875701946    -0.07355779293765     0.00000000000000     0.00000000000000
    3     0.08818486937779     0.07355779293765    -0.43973401119056     0.00000000000000     0.00000000000000
    4     0.00000000000000     0.00000000000000     0.00000000000000     0.02482337671061     0.00000000000000
    5     0.00000000000000     0.00000000000000     0.00000000000000     0.00000000000000     0.02482337671061
    6     0.96945722711242     0.20123413106538     0.00000000000000     0.00000000000000     0.00000000000000
    7     0.20123413106538     0.18300000000000    -0.00000000000000     0.00000000000000     0.00000000000000
    8     0.00000000000000    -0.00000000000000     1.81750000000000     0.00000000000000     0.00000000000000
    9     0.00000000000000     0.00000000000000     0.00000000000000     1.81750000000000     0.00000000000000
   10     0.00000000000000     0.00000000000000     0.00000000000000     0.00000000000000     1.81750000000000



  ## Potential (Symmetry 0) ##
  Irrep: 1 Size: 10 x 10

                 1                   2                   3                   4                   5

    1    -1.78463750847024    -0.92628404228858    -0.10398925965649     0.00000000000000     0.00000000000000
    2    -0.92628404228858    -0.92937477262314    -0.09616579991208     0.00000000000000     0.00000000000000
    3    -0.10398925965649    -0.09616579991208    -1.36028167509977     0.00000000000000     0.00000000000000
    4     0.00000000000000     0.00000000000000     0.00000000000000    -1.29094731611877     0.00000000000000
    5     0.00000000000000     0.00000000000000     0.00000000000000     0.00000000000000    -1.29094731611877
    6    -0.31595038023557    -0.52704580253791    -0.39960940243260     0.00000000000000     0.00000000000000
    7    -0.52704580253791    -0.68636828939285    -0.28372848253805     0.00000000000000     0.00000000000000
    8     0.39960940243260     0.28372848253805     0.56220869061734     0.00000000000000     0.00000000000000
    9     0.00000000000000     0.00000000000000     0.00000000000000    -0.14280206312534     0.00000000000000
   10     0.00000000000000     0.00000000000000     0.00000000000000     0.00000000000000    -0.14280206312534

                 6                   7                   8                   9                  10

    1    -0.31595038023557    -0.52704580253791     0.39960940243260     0.00000000000000     0.00000000000000
    2    -0.52704580253791    -0.68636828939285     0.28372848253805     0.00000000000000     0.00000000000000
    3    -0.39960940243260    -0.28372848253805     0.56220869061734     0.00000000000000     0.00000000000000
    4     0.00000000000000     0.00000000000000     0.00000000000000    -0.14280206312534     0.00000000000000
    5     0.00000000000000     0.00000000000000     0.00000000000000     0.00000000000000    -0.14280206312534
    6    -1.78463750847024    -0.92628404228858     0.10398925965649     0.00000000000000     0.00000000000000
    7    -0.92628404228858    -0.92937477262314     0.09616579991208     0.00000000000000     0.00000000000000
    8     0.10398925965649     0.09616579991208    -1.36028167509977     0.00000000000000     0.00000000000000
    9     0.00000000000000     0.00000000000000     0.00000000000000    -1.29094731611877     0.00000000000000
   10     0.00000000000000     0.00000000000000     0.00000000000000     0.00000000000000    -1.29094731611877



  ## One Electron Ints (Symmetry 0) ##
  Irrep: 1 Size: 10 x 10

                 1                   2                   3                   4                   5

    1    -0.81518028135781    -0.72504991122320    -0.10398925965649     0.00000000000000     0.00000000000000
    2    -0.72504991122320    -0.74637477262314    -0.09616579991208     0.00000000000000     0.00000000000000
    3    -0.10398925965649    -0.09616579991208     0.45721832490023     0.00000000000000     0.00000000000000
    4     0.00000000000000     0.00000000000000     0.00000000000000     0.52655268388123     0.00000000000000
    5     0.00000000000000     0.00000000000000     0.00000000000000     0.00000000000000     0.52655268388123
    6    -0.32048318283542    -0.45969554530555    -0.31142453305481     0.00000000000000     0.00000000000000
    7    -0.45969554530555    -0.59080953237339    -0.21017068960040     0.00000000000000     0.00000000000000
    8     0.31142453305481     0.21017068960040     0.12247467942679     0.00000000000000     0.00000000000000
    9     0.00000000000000     0.00000000000000     0.00000000000000    -0.11797868641473     0.00000000000000
   10     0.00000000000000     0.00000000000000     0.00000000000000     0.00000000000000    -0.11797868641473

                 6                   7                   8                   9                  10

    1    -0.32048318283542    -0.45969554530555     0.31142453305481     0.00000000000000     0.00000000000000
    2    -0.45969554530555    -0.59080953237339     0.21017068960040     0.00000000000000     0.00000000000000
    3    -0.31142453305481    -0.21017068960040     0.12247467942679     0.00000000000000     0.00000000000000
    4     0.00000000000000     0.00000000000000     0.00000000000000    -0.11797868641473     0.00000000000000
    5     0.00000000000000     0.00000000000000     0.00000000000000     0.00000000000000    -0.11797868641473
    6    -0.81518028135781    -0.72504991122320     0.10398925965649     0.00000000000000     0.00000000000000
    7    -0.72504991122320    -0.74637477262314     0.09616579991208     0.00000000000000     0.00000000000000
    8     0.10398925965649     0.09616579991208     0.45721832490023     0.00000000000000     0.00000000000000
    9     0.00000000000000     0.00000000000000     0.00000000000000     0.52655268388123     0.00000000000000
   10     0.00000000000000     0.00000000000000     0.00000000000000     0.00000000000000     0.52655268388123




	There are 0 unique integrals

  ## Fock (Symmetry 0) ##
  Irrep: 1 Size: 10 x 10

                 1                   2                   3                   4                   5

    1    -0.52680411228702    -0.32996806026292     0.00249363997333    -0.00000000000000     0.00000000000000
    2    -0.32996806026292    -0.33184140752820     0.15333096845955     0.00000000000000     0.00000000000000
    3     0.00249363997333     0.15333096845955     0.77412445307692    -0.00000000000000     0.00000000000000
    4    -0.00000000000000     0.00000000000000    -0.00000000000000     0.54650079257640     0.00000000000000
    5     0.00000000000000     0.00000000000000     0.00000000000000     0.00000000000000     0.54650079257640
    6    -0.06796844894918    -0.08981681263082    -0.27704536470110    -0.00000000000000     0.00000000000000
    7    -0.08981681263083    -0.14198769105376    -0.18168467026769     0.00000000000000     0.00000000000000
    8     0.27704536470110     0.18168467026769     0.46498176356498    -0.00000000000000     0.00000000000000
    9    -0.00000000000000     0.00000000000000    -0.00000000000000    -0.17891181743277     0.00000000000000
   10     0.00000000000000     0.00000000000000     0.00000000000000     0.00000000000000    -0.17891181743277

                 6                   7                   8                   9                  10

    1    -0.06796844894918    -0.08981681263082     0.27704536470110    -0.00000000000000     0.00000000000000
    2    -0.08981681263082    -0.14198769105376     0.18168467026769     0.00000000000000     0.00000000000000
    3    -0.27704536470110    -0.18168467026769     0.46498176356498    -0.00000000000000     0.00000000000000
    4    -0.00000000000000     0.00000000000000    -0.00000000000000    -0.17891181743277     0.00000000000000
    5     0.00000000000000     0.00000000000000     0.00000000000000     0.00000000000000    -0.17891181743277
    6    -0.52680411228702    -0.32996806026292    -0.00249363997333     0.00000000000000     0.00000000000000
    7    -0.32996806026292    -0.33184140752820    -0.15333096845955    -0.00000000000000     0.00000000000000
    8    -0.00249363997333    -0.15333096845955     0.77412445307692     0.00000000000000     0.00000000000000
    9     0.00000000000000    -0.00000000000000     0.00000000000000     0.54650079257640     0.00000000000000
   10     0.00000000000000     0.00000000000000     0.00000000000000     0.00000000000000     0.54650079257640



  ## C (Symmetry 0) ##
  Irrep: 1 Size: 10 x 10

                 1                   2                   3                   4                   5

    1    -0.39383052849172    -0.39550166643050    -0.22664779915681     0.04741118305252     0.09147546968180
    2    -0.49011677337917    -0.53372413204538    -0.08206028364516     0.03359499027295     0.08918553058331
    3     0.38163240449241    -0.69457328457847     0.14906519788077     0.14747209737958     0.21573413417684
    4    -0.39943560432552     0.58395623298537    -0.06451287376356     0.03670519077274    -0.01520378782756
    5    -0.00497863756688    -0.00767661532790    -0.03866146581615     0.36799604514452    -0.60769606357503
    6     0.07047131068758     0.03268335283057    -0.36854311957732    -0.80003514953452    -0.50142509965777
    7    -0.06112015412759     0.45605993419730     0.98933058373271     0.27723571767948     0.10077878928394
    8    -0.01725509087015    -0.26270087489425    -0.03402625127746     0.32504314418421     0.74682219116639
    9     0.02233755071394    -0.03265645783144     0.00360773945485    -0.65635486387692     0.27187108634737
   10     0.08902699900768     0.13727169652306     0.69133658206980    -0.02057936306110     0.03398405523136

                 6                   7                   8                   9                  10

    1    -0.99460246765168    -0.78925522195957     0.07109962739806    -0.02199421662176    -0.07608398751377
    2     1.44158590647821     0.73233832666802     0.58220484874158    -0.04252986513259    -0.09459612777044
    3     0.54013243570760    -0.59069035201389    -0.10802734562405     0.00766535669680    -0.12178919529071
    4     0.39943560432552    -0.58395623298537    -0.06451287376356    -0.03670519077274     0.01520378782756
    5     0.00497863756688     0.00767661532790    -0.03866146581615     0.36799604514453    -0.60769606357502
    6     0.07900962673975     0.03827947356230     0.37075380780232    -0.78128494405615    -0.45615809929460
    7    -0.79599528731527    -0.02558655709380    -1.17959992886581     0.35143884329763     0.27992098152177
    8     0.14534981097886    -0.15612755800627     0.07612691136652    -0.28313200823550    -0.72144251010361
    9    -0.02233755071394     0.03265645783144     0.00360773945485     0.65635486387692    -0.27187108634737
   10    -0.08902699900768    -0.13727169652306     0.69133658206980    -0.02057936306110     0.03398405523136




 In Bisection function HOMO = -0.998  LUMO =  1.342

 0.17163 = (-0.99837 + 1.34162)/2.0
 sum -  nocc_ = 3.08529983
 On Iteration in Bisection 0
 a: 3.08530  b:-0.49254

 -0.41337 = (-0.99837 + 0.17163)/2.0
 sum -  nocc_ = 1.00831320
 On Iteration in Bisection 1
 a: 1.00831  b:-0.49254

 -0.70587 = (-0.99837 + -0.41337)/2.0
 sum -  nocc_ = 0.42271568
 On Iteration in Bisection 2
 a: 0.42272  b:-0.49254

 -0.85212 = (-0.99837 + -0.70587)/2.0
 sum -  nocc_ = -0.02002163
 On Iteration in Bisection 3
 a: -0.02002  b:-0.49254

 -0.77900 = (-0.85212 + -0.70587)/2.0
 sum -  nocc_ = 0.16324471
 On Iteration in Bisection 4
 a: 0.16324  b:-0.02002

 -0.81556 = (-0.85212 + -0.77900)/2.0
 sum -  nocc_ = 0.06594575
 On Iteration in Bisection 5
 a: 0.06595  b:-0.02002

 -0.83384 = (-0.85212 + -0.81556)/2.0
 sum -  nocc_ = 0.02244506
 On Iteration in Bisection 6
 a: 0.02245  b:-0.02002

 -0.84298 = (-0.85212 + -0.83384)/2.0
 sum -  nocc_ = 0.00120459
 On Iteration in Bisection 7
 a: 0.00120  b:-0.02002

 -0.84755 = (-0.85212 + -0.84298)/2.0
 sum -  nocc_ = -0.00939488
 On Iteration in Bisection 8
 a: -0.00939  b:-0.02002

 -0.84527 = (-0.84755 + -0.84298)/2.0
 sum -  nocc_ = -0.00409366
 On Iteration in Bisection 9
 a: -0.00409  b:-0.00939

 -0.84413 = (-0.84527 + -0.84298)/2.0
 sum -  nocc_ = -0.00144440
 On Iteration in Bisection 10
 a: -0.00144  b:-0.00409

 -0.84355 = (-0.84413 + -0.84298)/2.0
 sum -  nocc_ = -0.00011990
 On Iteration in Bisection 11
 a: -0.00012  b:-0.00144

 -0.84327 = (-0.84355 + -0.84298)/2.0
 sum -  nocc_ = 0.00054234
 On Iteration in Bisection 12
 a: 0.00054  b:-0.00012

 -0.84341 = (-0.84355 + -0.84327)/2.0
 sum -  nocc_ = 0.00021122
 On Iteration in Bisection 13
 a: 0.00021  b:-0.00012

 -0.84348 = (-0.84355 + -0.84341)/2.0
 sum -  nocc_ = 0.00004566
 On Iteration in Bisection 14
 a: 0.00005  b:-0.00012

 -0.84352 = (-0.84355 + -0.84348)/2.0
 sum -  nocc_ = -0.00003712
 On Iteration in Bisection 15
 a: -0.00004  b:-0.00012

 -0.84350 = (-0.84352 + -0.84348)/2.0
 sum -  nocc_ = 0.00000427
 On Iteration in Bisection 16
 a: 0.00000  b:-0.00004

 -0.84351 = (-0.84352 + -0.84350)/2.0
 sum -  nocc_ = -0.00001643
 On Iteration in Bisection 17
 a: -0.00002  b:-0.00004

 -0.84350 = (-0.84351 + -0.84350)/2.0
 sum -  nocc_ = -0.00000608
 On Iteration in Bisection 18
 a: -0.00001  b:-0.00002

 -0.84350 = (-0.84350 + -0.84350)/2.0
 sum -  nocc_ = -0.00000090
 On Iteration in Bisection 19
 a: -0.00000  b:-0.00001

 -0.84350 = (-0.84350 + -0.84350)/2.0
 sum -  nocc_ = 0.00000168
 On Iteration in Bisection 20
 a: 0.00000  b:-0.00000

 -0.84350 = (-0.84350 + -0.84350)/2.0
 sum -  nocc_ = 0.00000039
 On Iteration in Bisection 21
 a: 0.00000  b:-0.00000

 -0.84350 = (-0.84350 + -0.84350)/2.0
 sum -  nocc_ = -0.00000026
 On Iteration in Bisection 22
 a: -0.00000  b:-0.00000

 -0.84350 = (-0.84350 + -0.84350)/2.0
 sum -  nocc_ = 0.00000007
 On Iteration in Bisection 23
 a: 0.00000  b:-0.00000

 -0.84350 = (-0.84350 + -0.84350)/2.0
 sum -  nocc_ = -0.00000010
 On Iteration in Bisection 24
 a: -0.00000  b:-0.00000

 -0.84350 = (-0.84350 + -0.84350)/2.0
 sum -  nocc_ = -0.00000001
 On Iteration in Bisection 25
 a: -0.00000  b:-0.00000

 -0.84350 = (-0.84350 + -0.84350)/2.0
 sum -  nocc_ = 0.00000003
 On Iteration in Bisection 26
 a: 0.00000  b:-0.00000

 -0.84350 = (-0.84350 + -0.84350)/2.0
 sum -  nocc_ = 0.00000001
 ef = -0.84350 sum = 1.00000 

 Iter: 0  T:    20000.000  val:-0.843502  sumni 0.00000
 ne = 1.0000

Nuc Replusion =       0.407059391223
 1st iteration =      -0.639710632845
 In Bisection function HOMO = -0.302  LUMO =  2.323

 1.01027 = (-0.30214 + 2.32268)/2.0
 sum -  nocc_ = 3.22035635
 On Iteration in Bisection 0
 a: 3.22036  b:-0.49380

 0.35407 = (-0.30214 + 1.01027)/2.0
 sum -  nocc_ = 1.26677490
 On Iteration in Bisection 1
 a: 1.26677  b:-0.49380

 0.02597 = (-0.30214 + 0.35407)/2.0
 sum -  nocc_ = 0.52180331
 On Iteration in Bisection 2
 a: 0.52180  b:-0.49380

 -0.13809 = (-0.30214 + 0.02597)/2.0
 sum -  nocc_ = 0.00702473
 On Iteration in Bisection 3
 a: 0.00702  b:-0.49380

 -0.22011 = (-0.30214 + -0.13809)/2.0
 sum -  nocc_ = -0.19271535
 On Iteration in Bisection 4
 a: -0.19272  b:-0.49380

 -0.17910 = (-0.22011 + -0.13809)/2.0
 sum -  nocc_ = -0.08364242
 On Iteration in Bisection 5
 a: -0.08364  b:-0.19272

 -0.15859 = (-0.17910 + -0.13809)/2.0
 sum -  nocc_ = -0.03718357
 On Iteration in Bisection 6
 a: -0.03718  b:-0.08364

 -0.14834 = (-0.15859 + -0.13809)/2.0
 sum -  nocc_ = -0.01496432
 On Iteration in Bisection 7
 a: -0.01496  b:-0.03718

 -0.14321 = (-0.14834 + -0.13809)/2.0
 sum -  nocc_ = -0.00396229
 On Iteration in Bisection 8
 a: -0.00396  b:-0.01496

 -0.14065 = (-0.14321 + -0.13809)/2.0
 sum -  nocc_ = 0.00153043
 On Iteration in Bisection 9
 a: 0.00153  b:-0.00396

 -0.14193 = (-0.14321 + -0.14065)/2.0
 sum -  nocc_ = -0.00121580
 On Iteration in Bisection 10
 a: -0.00122  b:-0.00396

 -0.14129 = (-0.14193 + -0.14065)/2.0
 sum -  nocc_ = 0.00015731
 On Iteration in Bisection 11
 a: 0.00016  b:-0.00122

 -0.14161 = (-0.14193 + -0.14129)/2.0
 sum -  nocc_ = -0.00052924
 On Iteration in Bisection 12
 a: -0.00053  b:-0.00122

 -0.14145 = (-0.14161 + -0.14129)/2.0
 sum -  nocc_ = -0.00018597
 On Iteration in Bisection 13
 a: -0.00019  b:-0.00053

 -0.14137 = (-0.14145 + -0.14129)/2.0
 sum -  nocc_ = -0.00001433
 On Iteration in Bisection 14
 a: -0.00001  b:-0.00019

 -0.14133 = (-0.14137 + -0.14129)/2.0
 sum -  nocc_ = 0.00007149
 On Iteration in Bisection 15
 a: 0.00007  b:-0.00001

 -0.14135 = (-0.14137 + -0.14133)/2.0
 sum -  nocc_ = 0.00002858
 On Iteration in Bisection 16
 a: 0.00003  b:-0.00001

 -0.14136 = (-0.14137 + -0.14135)/2.0
 sum -  nocc_ = 0.00000713
 On Iteration in Bisection 17
 a: 0.00001  b:-0.00001

 -0.14136 = (-0.14137 + -0.14136)/2.0
 sum -  nocc_ = -0.00000360
 On Iteration in Bisection 18
 a: -0.00000  b:-0.00001

 -0.14136 = (-0.14136 + -0.14136)/2.0
 sum -  nocc_ = 0.00000176
 On Iteration in Bisection 19
 a: 0.00000  b:-0.00000

 -0.14136 = (-0.14136 + -0.14136)/2.0
 sum -  nocc_ = -0.00000092
 On Iteration in Bisection 20
 a: -0.00000  b:-0.00000

 -0.14136 = (-0.14136 + -0.14136)/2.0
 sum -  nocc_ = 0.00000042
 On Iteration in Bisection 21
 a: 0.00000  b:-0.00000

 -0.14136 = (-0.14136 + -0.14136)/2.0
 sum -  nocc_ = -0.00000025
 On Iteration in Bisection 22
 a: -0.00000  b:-0.00000

 -0.14136 = (-0.14136 + -0.14136)/2.0
 sum -  nocc_ = 0.00000009
 On Iteration in Bisection 23
 a: 0.00000  b:-0.00000

 -0.14136 = (-0.14136 + -0.14136)/2.0
 sum -  nocc_ = -0.00000008
 On Iteration in Bisection 24
 a: -0.00000  b:-0.00000

 -0.14136 = (-0.14136 + -0.14136)/2.0
 sum -  nocc_ = 0.00000000
 ef = -0.14136 sum = 1.00000 

 Iter: 0  T:    20000.000  val:-0.141363  sumni 0.00000
 ne = 1.0000

 iter:1  failiter:1  energy:     -1.200652665434  total:     -0.793593274211  error:     -0.159713928063
 In Bisection function HOMO = -0.441  LUMO =  2.330

 0.94492 = (-0.44054 + 2.33039)/2.0
 sum -  nocc_ = 2.97986772
 On Iteration in Bisection 0
 a: 2.97987  b:-0.49938

 0.25219 = (-0.44054 + 0.94492)/2.0
 sum -  nocc_ = 0.98222703
 On Iteration in Bisection 1
 a: 0.98223  b:-0.49938

 -0.09418 = (-0.44054 + 0.25219)/2.0
 sum -  nocc_ = 0.12355631
 On Iteration in Bisection 2
 a: 0.12356  b:-0.49938

 -0.26736 = (-0.44054 + -0.09418)/2.0
 sum -  nocc_ = -0.05154848
 On Iteration in Bisection 3
 a: -0.05155  b:-0.49938

 -0.18077 = (-0.26736 + -0.09418)/2.0
 sum -  nocc_ = 0.01970085
 On Iteration in Bisection 4
 a: 0.01970  b:-0.05155

 -0.22406 = (-0.26736 + -0.18077)/2.0
 sum -  nocc_ = -0.01324464
 On Iteration in Bisection 5
 a: -0.01324  b:-0.05155

 -0.20242 = (-0.22406 + -0.18077)/2.0
 sum -  nocc_ = 0.00307340
 On Iteration in Bisection 6
 a: 0.00307  b:-0.01324

 -0.21324 = (-0.22406 + -0.20242)/2.0
 sum -  nocc_ = -0.00502268
 On Iteration in Bisection 7
 a: -0.00502  b:-0.01324

 -0.20783 = (-0.21324 + -0.20242)/2.0
 sum -  nocc_ = -0.00097160
 On Iteration in Bisection 8
 a: -0.00097  b:-0.00502

 -0.20512 = (-0.20783 + -0.20242)/2.0
 sum -  nocc_ = 0.00105008
 On Iteration in Bisection 9
 a: 0.00105  b:-0.00097

 -0.20647 = (-0.20783 + -0.20512)/2.0
 sum -  nocc_ = 0.00003923
 On Iteration in Bisection 10
 a: 0.00004  b:-0.00097

 -0.20715 = (-0.20783 + -0.20647)/2.0
 sum -  nocc_ = -0.00046616
 On Iteration in Bisection 11
 a: -0.00047  b:-0.00097

 -0.20681 = (-0.20715 + -0.20647)/2.0
 sum -  nocc_ = -0.00021346
 On Iteration in Bisection 12
 a: -0.00021  b:-0.00047

 -0.20664 = (-0.20681 + -0.20647)/2.0
 sum -  nocc_ = -0.00008711
 On Iteration in Bisection 13
 a: -0.00009  b:-0.00021

 -0.20656 = (-0.20664 + -0.20647)/2.0
 sum -  nocc_ = -0.00002394
 On Iteration in Bisection 14
 a: -0.00002  b:-0.00009

 -0.20652 = (-0.20656 + -0.20647)/2.0
 sum -  nocc_ = 0.00000765
 On Iteration in Bisection 15
 a: 0.00001  b:-0.00002

 -0.20654 = (-0.20656 + -0.20652)/2.0
 sum -  nocc_ = -0.00000815
 On Iteration in Bisection 16
 a: -0.00001  b:-0.00002

 -0.20653 = (-0.20654 + -0.20652)/2.0
 sum -  nocc_ = -0.00000025
 On Iteration in Bisection 17
 a: -0.00000  b:-0.00001

 -0.20652 = (-0.20653 + -0.20652)/2.0
 sum -  nocc_ = 0.00000370
 On Iteration in Bisection 18
 a: 0.00000  b:-0.00000

 -0.20652 = (-0.20653 + -0.20652)/2.0
 sum -  nocc_ = 0.00000172
 On Iteration in Bisection 19
 a: 0.00000  b:-0.00000

 -0.20653 = (-0.20653 + -0.20652)/2.0
 sum -  nocc_ = 0.00000074
 On Iteration in Bisection 20
 a: 0.00000  b:-0.00000

 -0.20653 = (-0.20653 + -0.20653)/2.0
 sum -  nocc_ = 0.00000024
 On Iteration in Bisection 21
 a: 0.00000  b:-0.00000

 -0.20653 = (-0.20653 + -0.20653)/2.0
 sum -  nocc_ = -0.00000000
 ef = -0.20653 sum = 1.00000 

 Iter: 1  T:    20000.000  val:-0.206527  sumni 0.00000
 ne = 1.0000

 iter:2  failiter:2  energy:     -1.397920429436  total:     -0.990861038213  error:     -0.197267764002
 In Bisection function HOMO = -0.466  LUMO =  2.338

 0.93642 = (-0.46560 + 2.33845)/2.0
 sum -  nocc_ = 2.97629459
 On Iteration in Bisection 0
 a: 2.97629  b:-0.49978

 0.23541 = (-0.46560 + 0.93642)/2.0
 sum -  nocc_ = 0.93660001
 On Iteration in Bisection 1
 a: 0.93660  b:-0.49978

 -0.11510 = (-0.46560 + 0.23541)/2.0
 sum -  nocc_ = 0.04806019
 On Iteration in Bisection 2
 a: 0.04806  b:-0.49978

 -0.29035 = (-0.46560 + -0.11510)/2.0
 sum -  nocc_ = -0.05568850
 On Iteration in Bisection 3
 a: -0.05569  b:-0.49978

 -0.20272 = (-0.29035 + -0.11510)/2.0
 sum -  nocc_ = -0.00194619
 On Iteration in Bisection 4
 a: -0.00195  b:-0.05569

 -0.15891 = (-0.20272 + -0.11510)/2.0
 sum -  nocc_ = 0.01890027
 On Iteration in Bisection 5
 a: 0.01890  b:-0.00195

 -0.18082 = (-0.20272 + -0.15891)/2.0
 sum -  nocc_ = 0.00803619
 On Iteration in Bisection 6
 a: 0.00804  b:-0.00195

 -0.19177 = (-0.20272 + -0.18082)/2.0
 sum -  nocc_ = 0.00300387
 On Iteration in Bisection 7
 a: 0.00300  b:-0.00195

 -0.19725 = (-0.20272 + -0.19177)/2.0
 sum -  nocc_ = 0.00052704
 On Iteration in Bisection 8
 a: 0.00053  b:-0.00195

 -0.19999 = (-0.20272 + -0.19725)/2.0
 sum -  nocc_ = -0.00070897
 On Iteration in Bisection 9
 a: -0.00071  b:-0.00195

 -0.19862 = (-0.19999 + -0.19725)/2.0
 sum -  nocc_ = -0.00009095
 On Iteration in Bisection 10
 a: -0.00009  b:-0.00071

 -0.19793 = (-0.19862 + -0.19725)/2.0
 sum -  nocc_ = 0.00021803
 On Iteration in Bisection 11
 a: 0.00022  b:-0.00009

 -0.19827 = (-0.19862 + -0.19793)/2.0
 sum -  nocc_ = 0.00006354
 On Iteration in Bisection 12
 a: 0.00006  b:-0.00009

 -0.19845 = (-0.19862 + -0.19827)/2.0
 sum -  nocc_ = -0.00001370
 On Iteration in Bisection 13
 a: -0.00001  b:-0.00009

 -0.19836 = (-0.19845 + -0.19827)/2.0
 sum -  nocc_ = 0.00002492
 On Iteration in Bisection 14
 a: 0.00002  b:-0.00001

 -0.19840 = (-0.19845 + -0.19836)/2.0
 sum -  nocc_ = 0.00000561
 On Iteration in Bisection 15
 a: 0.00001  b:-0.00001

 -0.19842 = (-0.19845 + -0.19840)/2.0
 sum -  nocc_ = -0.00000405
 On Iteration in Bisection 16
 a: -0.00000  b:-0.00001

 -0.19841 = (-0.19842 + -0.19840)/2.0
 sum -  nocc_ = 0.00000078
 On Iteration in Bisection 17
 a: 0.00000  b:-0.00000

 -0.19842 = (-0.19842 + -0.19841)/2.0
 sum -  nocc_ = -0.00000163
 On Iteration in Bisection 18
 a: -0.00000  b:-0.00000

 -0.19842 = (-0.19842 + -0.19841)/2.0
 sum -  nocc_ = -0.00000043
 On Iteration in Bisection 19
 a: -0.00000  b:-0.00000

 -0.19841 = (-0.19842 + -0.19841)/2.0
 sum -  nocc_ = 0.00000018
 On Iteration in Bisection 20
 a: 0.00000  b:-0.00000

 -0.19842 = (-0.19842 + -0.19841)/2.0
 sum -  nocc_ = -0.00000012
 On Iteration in Bisection 21
 a: -0.00000  b:-0.00000

 -0.19842 = (-0.19842 + -0.19841)/2.0
 sum -  nocc_ = 0.00000003
 On Iteration in Bisection 22
 a: 0.00000  b:-0.00000

 -0.19842 = (-0.19842 + -0.19842)/2.0
 sum -  nocc_ = -0.00000005
 On Iteration in Bisection 23
 a: -0.00000  b:-0.00000

 -0.19842 = (-0.19842 + -0.19842)/2.0
 sum -  nocc_ = -0.00000001
 On Iteration in Bisection 24
 a: -0.00000  b:-0.00000

 -0.19842 = (-0.19842 + -0.19842)/2.0
 sum -  nocc_ = 0.00000001
 ef = -0.19842 sum = 1.00000 

 Iter: 2  T:    20000.000  val:-0.198415  sumni 0.00000
 ne = 1.0000

 iter:3  failiter:3  energy:     -1.432055007744  total:     -1.024995616521  error:     -0.034134578308
 In Bisection function HOMO = -0.466  LUMO =  2.343

 0.93878 = (-0.46584 + 2.34339)/2.0
 sum -  nocc_ = 2.97579258
 On Iteration in Bisection 0
 a: 2.97579  b:-0.49980

 0.23647 = (-0.46584 + 0.93878)/2.0
 sum -  nocc_ = 0.93224555
 On Iteration in Bisection 1
 a: 0.93225  b:-0.49980

 -0.11468 = (-0.46584 + 0.23647)/2.0
 sum -  nocc_ = 0.04446092
 On Iteration in Bisection 2
 a: 0.04446  b:-0.49980

 -0.29026 = (-0.46584 + -0.11468)/2.0
 sum -  nocc_ = -0.05567300
 On Iteration in Bisection 3
 a: -0.05567  b:-0.49980

 -0.20247 = (-0.29026 + -0.11468)/2.0
 sum -  nocc_ = -0.00284620
 On Iteration in Bisection 4
 a: -0.00285  b:-0.05567

 -0.15858 = (-0.20247 + -0.11468)/2.0
 sum -  nocc_ = 0.01702168
 On Iteration in Bisection 5
 a: 0.01702  b:-0.00285

 -0.18052 = (-0.20247 + -0.15858)/2.0
 sum -  nocc_ = 0.00671609
 On Iteration in Bisection 6
 a: 0.00672  b:-0.00285

 -0.19150 = (-0.20247 + -0.18052)/2.0
 sum -  nocc_ = 0.00190861
 On Iteration in Bisection 7
 a: 0.00191  b:-0.00285

 -0.19699 = (-0.20247 + -0.19150)/2.0
 sum -  nocc_ = -0.00046719
 On Iteration in Bisection 8
 a: -0.00047  b:-0.00285

 -0.19424 = (-0.19699 + -0.19150)/2.0
 sum -  nocc_ = 0.00072009
 On Iteration in Bisection 9
 a: 0.00072  b:-0.00047

 -0.19561 = (-0.19699 + -0.19424)/2.0
 sum -  nocc_ = 0.00012642
 On Iteration in Bisection 10
 a: 0.00013  b:-0.00047

 -0.19630 = (-0.19699 + -0.19561)/2.0
 sum -  nocc_ = -0.00017038
 On Iteration in Bisection 11
 a: -0.00017  b:-0.00047

 -0.19596 = (-0.19630 + -0.19561)/2.0
 sum -  nocc_ = -0.00002198
 On Iteration in Bisection 12
 a: -0.00002  b:-0.00017

 -0.19578 = (-0.19596 + -0.19561)/2.0
 sum -  nocc_ = 0.00005222
 On Iteration in Bisection 13
 a: 0.00005  b:-0.00002

 -0.19587 = (-0.19596 + -0.19578)/2.0
 sum -  nocc_ = 0.00001512
 On Iteration in Bisection 14
 a: 0.00002  b:-0.00002

 -0.19591 = (-0.19596 + -0.19587)/2.0
 sum -  nocc_ = -0.00000343
 On Iteration in Bisection 15
 a: -0.00000  b:-0.00002

 -0.19589 = (-0.19591 + -0.19587)/2.0
 sum -  nocc_ = 0.00000585
 On Iteration in Bisection 16
 a: 0.00001  b:-0.00000

 -0.19590 = (-0.19591 + -0.19589)/2.0
 sum -  nocc_ = 0.00000121
 On Iteration in Bisection 17
 a: 0.00000  b:-0.00000

 -0.19591 = (-0.19591 + -0.19590)/2.0
 sum -  nocc_ = -0.00000111
 On Iteration in Bisection 18
 a: -0.00000  b:-0.00000

 -0.19591 = (-0.19591 + -0.19590)/2.0
 sum -  nocc_ = 0.00000005
 On Iteration in Bisection 19
 a: 0.00000  b:-0.00000

 -0.19591 = (-0.19591 + -0.19591)/2.0
 sum -  nocc_ = -0.00000053
 On Iteration in Bisection 20
 a: -0.00000  b:-0.00000

 -0.19591 = (-0.19591 + -0.19591)/2.0
 sum -  nocc_ = -0.00000024
 On Iteration in Bisection 21
 a: -0.00000  b:-0.00000

 -0.19591 = (-0.19591 + -0.19591)/2.0
 sum -  nocc_ = -0.00000009
 On Iteration in Bisection 22
 a: -0.00000  b:-0.00000

 -0.19591 = (-0.19591 + -0.19591)/2.0
 sum -  nocc_ = -0.00000002
 On Iteration in Bisection 23
 a: -0.00000  b:-0.00000

 -0.19591 = (-0.19591 + -0.19591)/2.0
 sum -  nocc_ = 0.00000001
 On Iteration in Bisection 24
 a: 0.00000  b:-0.00000

 -0.19591 = (-0.19591 + -0.19591)/2.0
 sum -  nocc_ = -0.00000000
 ef = -0.19591 sum = 1.00000 

 Iter: 3  T:    20000.000  val:-0.195906  sumni 0.00000
 ne = 1.0000

 iter:4  failiter:4  energy:     -1.433082008850  total:     -1.026022617627  error:     -0.001027001106
 In Bisection function HOMO = -0.466  LUMO =  2.344

 0.93922 = (-0.46564 + 2.34408)/2.0
 sum -  nocc_ = 2.97579008
 On Iteration in Bisection 0
 a: 2.97579  b:-0.49980

 0.23679 = (-0.46564 + 0.93922)/2.0
 sum -  nocc_ = 0.93200900
 On Iteration in Bisection 1
 a: 0.93201  b:-0.49980

 -0.11442 = (-0.46564 + 0.23679)/2.0
 sum -  nocc_ = 0.04425745
 On Iteration in Bisection 2
 a: 0.04426  b:-0.49980

 -0.29003 = (-0.46564 + -0.11442)/2.0
 sum -  nocc_ = -0.05566213
 On Iteration in Bisection 3
 a: -0.05566  b:-0.49980

 -0.20222 = (-0.29003 + -0.11442)/2.0
 sum -  nocc_ = -0.00289402
 On Iteration in Bisection 4
 a: -0.00289  b:-0.05566

 -0.15832 = (-0.20222 + -0.11442)/2.0
 sum -  nocc_ = 0.01691647
 On Iteration in Bisection 5
 a: 0.01692  b:-0.00289

 -0.18027 = (-0.20222 + -0.15832)/2.0
 sum -  nocc_ = 0.00664337
 On Iteration in Bisection 6
 a: 0.00664  b:-0.00289

 -0.19125 = (-0.20222 + -0.18027)/2.0
 sum -  nocc_ = 0.00184914
 On Iteration in Bisection 7
 a: 0.00185  b:-0.00289

 -0.19674 = (-0.20222 + -0.19125)/2.0
 sum -  nocc_ = -0.00052065
 On Iteration in Bisection 8
 a: -0.00052  b:-0.00289

 -0.19399 = (-0.19674 + -0.19125)/2.0
 sum -  nocc_ = 0.00066368
 On Iteration in Bisection 9
 a: 0.00066  b:-0.00052

 -0.19537 = (-0.19674 + -0.19399)/2.0
 sum -  nocc_ = 0.00007150
 On Iteration in Bisection 10
 a: 0.00007  b:-0.00052

 -0.19605 = (-0.19674 + -0.19537)/2.0
 sum -  nocc_ = -0.00022456
 On Iteration in Bisection 11
 a: -0.00022  b:-0.00052

 -0.19571 = (-0.19605 + -0.19537)/2.0
 sum -  nocc_ = -0.00007653
 On Iteration in Bisection 12
 a: -0.00008  b:-0.00022

 -0.19554 = (-0.19571 + -0.19537)/2.0
 sum -  nocc_ = -0.00000252
 On Iteration in Bisection 13
 a: -0.00000  b:-0.00008

 -0.19545 = (-0.19554 + -0.19537)/2.0
 sum -  nocc_ = 0.00003449
 On Iteration in Bisection 14
 a: 0.00003  b:-0.00000

 -0.19549 = (-0.19554 + -0.19545)/2.0
 sum -  nocc_ = 0.00001599
 On Iteration in Bisection 15
 a: 0.00002  b:-0.00000

 -0.19552 = (-0.19554 + -0.19549)/2.0
 sum -  nocc_ = 0.00000674
 On Iteration in Bisection 16
 a: 0.00001  b:-0.00000

 -0.19553 = (-0.19554 + -0.19552)/2.0
 sum -  nocc_ = 0.00000211
 On Iteration in Bisection 17
 a: 0.00000  b:-0.00000

 -0.19553 = (-0.19554 + -0.19553)/2.0
 sum -  nocc_ = -0.00000020
 On Iteration in Bisection 18
 a: -0.00000  b:-0.00000

 -0.19553 = (-0.19553 + -0.19553)/2.0
 sum -  nocc_ = 0.00000095
 On Iteration in Bisection 19
 a: 0.00000  b:-0.00000

 -0.19553 = (-0.19553 + -0.19553)/2.0
 sum -  nocc_ = 0.00000038
 On Iteration in Bisection 20
 a: 0.00000  b:-0.00000

 -0.19553 = (-0.19553 + -0.19553)/2.0
 sum -  nocc_ = 0.00000009
 On Iteration in Bisection 21
 a: 0.00000  b:-0.00000

 -0.19553 = (-0.19553 + -0.19553)/2.0
 sum -  nocc_ = -0.00000006
 On Iteration in Bisection 22
 a: -0.00000  b:-0.00000

 -0.19553 = (-0.19553 + -0.19553)/2.0
 sum -  nocc_ = 0.00000001
 On Iteration in Bisection 23
 a: 0.00000  b:-0.00000

 -0.19553 = (-0.19553 + -0.19553)/2.0
 sum -  nocc_ = -0.00000002
 On Iteration in Bisection 24
 a: -0.00000  b:-0.00000

 -0.19553 = (-0.19553 + -0.19553)/2.0
 sum -  nocc_ = -0.00000000
 ef = -0.19553 sum = 1.00000 

 Iter: 4  T:    20000.000  val:-0.195531  sumni 0.00000
 ne = 1.0000

 iter:5  failiter:5  energy:     -1.432962157923  total:     -1.025902766700  error:      0.000119850927
 In Bisection function HOMO = -0.466  LUMO =  2.344

 0.93929 = (-0.46559 + 2.34418)/2.0
 sum -  nocc_ = 2.97579418
 On Iteration in Bisection 0
 a: 2.97579  b:-0.49980

 0.23685 = (-0.46559 + 0.93929)/2.0
 sum -  nocc_ = 0.93200066
 On Iteration in Bisection 1
 a: 0.93200  b:-0.49980

 -0.11437 = (-0.46559 + 0.23685)/2.0
 sum -  nocc_ = 0.04424657
 On Iteration in Bisection 2
 a: 0.04425  b:-0.49980

 -0.28998 = (-0.46559 + -0.11437)/2.0
 sum -  nocc_ = -0.05566000
 On Iteration in Bisection 3
 a: -0.05566  b:-0.49980

 -0.20217 = (-0.28998 + -0.11437)/2.0
 sum -  nocc_ = -0.00289614
 On Iteration in Bisection 4
 a: -0.00290  b:-0.05566

 -0.15827 = (-0.20217 + -0.11437)/2.0
 sum -  nocc_ = 0.01691094
 On Iteration in Bisection 5
 a: 0.01691  b:-0.00290

 -0.18022 = (-0.20217 + -0.15827)/2.0
 sum -  nocc_ = 0.00663972
 On Iteration in Bisection 6
 a: 0.00664  b:-0.00290

 -0.19120 = (-0.20217 + -0.18022)/2.0
 sum -  nocc_ = 0.00184629
 On Iteration in Bisection 7
 a: 0.00185  b:-0.00290

 -0.19669 = (-0.20217 + -0.19120)/2.0
 sum -  nocc_ = -0.00052312
 On Iteration in Bisection 8
 a: -0.00052  b:-0.00290

 -0.19394 = (-0.19669 + -0.19120)/2.0
 sum -  nocc_ = 0.00066102
 On Iteration in Bisection 9
 a: 0.00066  b:-0.00052

 -0.19532 = (-0.19669 + -0.19394)/2.0
 sum -  nocc_ = 0.00006893
 On Iteration in Bisection 10
 a: 0.00007  b:-0.00052

 -0.19600 = (-0.19669 + -0.19532)/2.0
 sum -  nocc_ = -0.00022708
 On Iteration in Bisection 11
 a: -0.00023  b:-0.00052

 -0.19566 = (-0.19600 + -0.19532)/2.0
 sum -  nocc_ = -0.00007908
 On Iteration in Bisection 12
 a: -0.00008  b:-0.00023

 -0.19549 = (-0.19566 + -0.19532)/2.0
 sum -  nocc_ = -0.00000507
 On Iteration in Bisection 13
 a: -0.00001  b:-0.00008

 -0.19540 = (-0.19549 + -0.19532)/2.0
 sum -  nocc_ = 0.00003193
 On Iteration in Bisection 14
 a: 0.00003  b:-0.00001

 -0.19544 = (-0.19549 + -0.19540)/2.0
 sum -  nocc_ = 0.00001343
 On Iteration in Bisection 15
 a: 0.00001  b:-0.00001

 -0.19547 = (-0.19549 + -0.19544)/2.0
 sum -  nocc_ = 0.00000418
 On Iteration in Bisection 16
 a: 0.00000  b:-0.00001

 -0.19548 = (-0.19549 + -0.19547)/2.0
 sum -  nocc_ = -0.00000045
 On Iteration in Bisection 17
 a: -0.00000  b:-0.00001

 -0.19547 = (-0.19548 + -0.19547)/2.0
 sum -  nocc_ = 0.00000187
 On Iteration in Bisection 18
 a: 0.00000  b:-0.00000

 -0.19547 = (-0.19548 + -0.19547)/2.0
 sum -  nocc_ = 0.00000071
 On Iteration in Bisection 19
 a: 0.00000  b:-0.00000

 -0.19547 = (-0.19548 + -0.19547)/2.0
 sum -  nocc_ = 0.00000013
 On Iteration in Bisection 20
 a: 0.00000  b:-0.00000

 -0.19548 = (-0.19548 + -0.19547)/2.0
 sum -  nocc_ = -0.00000016
 On Iteration in Bisection 21
 a: -0.00000  b:-0.00000

 -0.19547 = (-0.19548 + -0.19547)/2.0
 sum -  nocc_ = -0.00000001
 On Iteration in Bisection 22
 a: -0.00000  b:-0.00000

 -0.19547 = (-0.19547 + -0.19547)/2.0
 sum -  nocc_ = 0.00000006
 On Iteration in Bisection 23
 a: 0.00000  b:-0.00000

 -0.19547 = (-0.19547 + -0.19547)/2.0
 sum -  nocc_ = 0.00000002
 On Iteration in Bisection 24
 a: 0.00000  b:-0.00000

 -0.19547 = (-0.19547 + -0.19547)/2.0
 sum -  nocc_ = 0.00000000
 ef = -0.19547 sum = 1.00000 

 Iter: 5  T:    20000.000  val:-0.195475  sumni 0.00000
 ne = 1.0000

 iter:6  failiter:6  energy:     -1.432927629916  total:     -1.025868238693  error:      0.000034528007
 In Bisection function HOMO = -0.466  LUMO =  2.344

 0.93931 = (-0.46558 + 2.34420)/2.0
 sum -  nocc_ = 2.97579513
 On Iteration in Bisection 0
 a: 2.97580  b:-0.49980

 0.23686 = (-0.46558 + 0.93931)/2.0
 sum -  nocc_ = 0.93200113
 On Iteration in Bisection 1
 a: 0.93200  b:-0.49980

 -0.11436 = (-0.46558 + 0.23686)/2.0
 sum -  nocc_ = 0.04424612
 On Iteration in Bisection 2
 a: 0.04425  b:-0.49980

 -0.28997 = (-0.46558 + -0.11436)/2.0
 sum -  nocc_ = -0.05565963
 On Iteration in Bisection 3
 a: -0.05566  b:-0.49980

 -0.20217 = (-0.28997 + -0.11436)/2.0
 sum -  nocc_ = -0.00289615
 On Iteration in Bisection 4
 a: -0.00290  b:-0.05566

 -0.15826 = (-0.20217 + -0.11436)/2.0
 sum -  nocc_ = 0.01691073
 On Iteration in Bisection 5
 a: 0.01691  b:-0.00290

 -0.18021 = (-0.20217 + -0.15826)/2.0
 sum -  nocc_ = 0.00663962
 On Iteration in Bisection 6
 a: 0.00664  b:-0.00290

 -0.19119 = (-0.20217 + -0.18021)/2.0
 sum -  nocc_ = 0.00184624
 On Iteration in Bisection 7
 a: 0.00185  b:-0.00290

 -0.19668 = (-0.20217 + -0.19119)/2.0
 sum -  nocc_ = -0.00052315
 On Iteration in Bisection 8
 a: -0.00052  b:-0.00290

 -0.19393 = (-0.19668 + -0.19119)/2.0
 sum -  nocc_ = 0.00066097
 On Iteration in Bisection 9
 a: 0.00066  b:-0.00052

 -0.19531 = (-0.19668 + -0.19393)/2.0
 sum -  nocc_ = 0.00006890
 On Iteration in Bisection 10
 a: 0.00007  b:-0.00052

 -0.19599 = (-0.19668 + -0.19531)/2.0
 sum -  nocc_ = -0.00022712
 On Iteration in Bisection 11
 a: -0.00023  b:-0.00052

 -0.19565 = (-0.19599 + -0.19531)/2.0
 sum -  nocc_ = -0.00007911
 On Iteration in Bisection 12
 a: -0.00008  b:-0.00023

 -0.19548 = (-0.19565 + -0.19531)/2.0
 sum -  nocc_ = -0.00000511
 On Iteration in Bisection 13
 a: -0.00001  b:-0.00008

 -0.19539 = (-0.19548 + -0.19531)/2.0
 sum -  nocc_ = 0.00003189
 On Iteration in Bisection 14
 a: 0.00003  b:-0.00001

 -0.19543 = (-0.19548 + -0.19539)/2.0
 sum -  nocc_ = 0.00001339
 On Iteration in Bisection 15
 a: 0.00001  b:-0.00001

 -0.19546 = (-0.19548 + -0.19543)/2.0
 sum -  nocc_ = 0.00000414
 On Iteration in Bisection 16
 a: 0.00000  b:-0.00001

 -0.19547 = (-0.19548 + -0.19546)/2.0
 sum -  nocc_ = -0.00000048
 On Iteration in Bisection 17
 a: -0.00000  b:-0.00001

 -0.19546 = (-0.19547 + -0.19546)/2.0
 sum -  nocc_ = 0.00000183
 On Iteration in Bisection 18
 a: 0.00000  b:-0.00000

 -0.19546 = (-0.19547 + -0.19546)/2.0
 sum -  nocc_ = 0.00000067
 On Iteration in Bisection 19
 a: 0.00000  b:-0.00000

 -0.19547 = (-0.19547 + -0.19546)/2.0
 sum -  nocc_ = 0.00000010
 On Iteration in Bisection 20
 a: 0.00000  b:-0.00000

 -0.19547 = (-0.19547 + -0.19547)/2.0
 sum -  nocc_ = -0.00000019
 On Iteration in Bisection 21
 a: -0.00000  b:-0.00000

 -0.19547 = (-0.19547 + -0.19547)/2.0
 sum -  nocc_ = -0.00000005
 On Iteration in Bisection 22
 a: -0.00000  b:-0.00000

 -0.19547 = (-0.19547 + -0.19547)/2.0
 sum -  nocc_ = 0.00000002
 On Iteration in Bisection 23
 a: 0.00000  b:-0.00000

 -0.19547 = (-0.19547 + -0.19547)/2.0
 sum -  nocc_ = -0.00000001
 On Iteration in Bisection 24
 a: -0.00000  b:-0.00000

 -0.19547 = (-0.19547 + -0.19547)/2.0
 sum -  nocc_ = 0.00000001
 ef = -0.19547 sum = 1.00000 

 Iter: 6  T:    20000.000  val:-0.195466  sumni 0.00000
 ne = 1.0000

 iter:7  failiter:7  energy:     -1.432921208675  total:     -1.025861817452  error:      0.000006421241
 In Bisection function HOMO = -0.466  LUMO =  2.344

 0.93931 = (-0.46558 + 2.34420)/2.0
 sum -  nocc_ = 2.97579530
 On Iteration in Bisection 0
 a: 2.97580  b:-0.49980

 0.23686 = (-0.46558 + 0.93931)/2.0
 sum -  nocc_ = 0.93200133
 On Iteration in Bisection 1
 a: 0.93200  b:-0.49980

 -0.11436 = (-0.46558 + 0.23686)/2.0
 sum -  nocc_ = 0.04424614
 On Iteration in Bisection 2
 a: 0.04425  b:-0.49980

 -0.28997 = (-0.46558 + -0.11436)/2.0
 sum -  nocc_ = -0.05565956
 On Iteration in Bisection 3
 a: -0.05566  b:-0.49980

 -0.20216 = (-0.28997 + -0.11436)/2.0
 sum -  nocc_ = -0.00289613
 On Iteration in Bisection 4
 a: -0.00290  b:-0.05566

 -0.15826 = (-0.20216 + -0.11436)/2.0
 sum -  nocc_ = 0.01691074
 On Iteration in Bisection 5
 a: 0.01691  b:-0.00290

 -0.18021 = (-0.20216 + -0.15826)/2.0
 sum -  nocc_ = 0.00663963
 On Iteration in Bisection 6
 a: 0.00664  b:-0.00290

 -0.19119 = (-0.20216 + -0.18021)/2.0
 sum -  nocc_ = 0.00184626
 On Iteration in Bisection 7
 a: 0.00185  b:-0.00290

 -0.19668 = (-0.20216 + -0.19119)/2.0
 sum -  nocc_ = -0.00052313
 On Iteration in Bisection 8
 a: -0.00052  b:-0.00290

 -0.19393 = (-0.19668 + -0.19119)/2.0
 sum -  nocc_ = 0.00066099
 On Iteration in Bisection 9
 a: 0.00066  b:-0.00052

 -0.19530 = (-0.19668 + -0.19393)/2.0
 sum -  nocc_ = 0.00006891
 On Iteration in Bisection 10
 a: 0.00007  b:-0.00052

 -0.19599 = (-0.19668 + -0.19530)/2.0
 sum -  nocc_ = -0.00022710
 On Iteration in Bisection 11
 a: -0.00023  b:-0.00052

 -0.19565 = (-0.19599 + -0.19530)/2.0
 sum -  nocc_ = -0.00007909
 On Iteration in Bisection 12
 a: -0.00008  b:-0.00023

 -0.19548 = (-0.19565 + -0.19530)/2.0
 sum -  nocc_ = -0.00000509
 On Iteration in Bisection 13
 a: -0.00001  b:-0.00008

 -0.19539 = (-0.19548 + -0.19530)/2.0
 sum -  nocc_ = 0.00003191
 On Iteration in Bisection 14
 a: 0.00003  b:-0.00001

 -0.19543 = (-0.19548 + -0.19539)/2.0
 sum -  nocc_ = 0.00001341
 On Iteration in Bisection 15
 a: 0.00001  b:-0.00001

 -0.19545 = (-0.19548 + -0.19543)/2.0
 sum -  nocc_ = 0.00000416
 On Iteration in Bisection 16
 a: 0.00000  b:-0.00001

 -0.19547 = (-0.19548 + -0.19545)/2.0
 sum -  nocc_ = -0.00000046
 On Iteration in Bisection 17
 a: -0.00000  b:-0.00001

 -0.19546 = (-0.19547 + -0.19545)/2.0
 sum -  nocc_ = 0.00000185
 On Iteration in Bisection 18
 a: 0.00000  b:-0.00000

 -0.19546 = (-0.19547 + -0.19546)/2.0
 sum -  nocc_ = 0.00000069
 On Iteration in Bisection 19
 a: 0.00000  b:-0.00000

 -0.19546 = (-0.19547 + -0.19546)/2.0
 sum -  nocc_ = 0.00000011
 On Iteration in Bisection 20
 a: 0.00000  b:-0.00000

 -0.19547 = (-0.19547 + -0.19546)/2.0
 sum -  nocc_ = -0.00000017
 On Iteration in Bisection 21
 a: -0.00000  b:-0.00000

 -0.19546 = (-0.19547 + -0.19546)/2.0
 sum -  nocc_ = -0.00000003
 On Iteration in Bisection 22
 a: -0.00000  b:-0.00000

 -0.19546 = (-0.19546 + -0.19546)/2.0
 sum -  nocc_ = 0.00000004
 On Iteration in Bisection 23
 a: 0.00000  b:-0.00000

 -0.19546 = (-0.19546 + -0.19546)/2.0
 sum -  nocc_ = 0.00000001
 ef = -0.19546 sum = 1.00000 

 Iter: 7  T:    20000.000  val:-0.195465  sumni 0.00000
 ne = 1.0000

 iter:8  failiter:8  energy:     -1.432920118612  total:     -1.025860727389  error:      0.000001090063
 In Bisection function HOMO = -0.466  LUMO =  2.344

 0.93931 = (-0.46558 + 2.34420)/2.0
 sum -  nocc_ = 2.97579533
 On Iteration in Bisection 0
 a: 2.97580  b:-0.49980

 0.23686 = (-0.46558 + 0.93931)/2.0
 sum -  nocc_ = 0.93200137
 On Iteration in Bisection 1
 a: 0.93200  b:-0.49980

 -0.11436 = (-0.46558 + 0.23686)/2.0
 sum -  nocc_ = 0.04424614
 On Iteration in Bisection 2
 a: 0.04425  b:-0.49980

 -0.28997 = (-0.46558 + -0.11436)/2.0
 sum -  nocc_ = -0.05565955
 On Iteration in Bisection 3
 a: -0.05566  b:-0.49980

 -0.20216 = (-0.28997 + -0.11436)/2.0
 sum -  nocc_ = -0.00289612
 On Iteration in Bisection 4
 a: -0.00290  b:-0.05566

 -0.15826 = (-0.20216 + -0.11436)/2.0
 sum -  nocc_ = 0.01691075
 On Iteration in Bisection 5
 a: 0.01691  b:-0.00290

 -0.18021 = (-0.20216 + -0.15826)/2.0
 sum -  nocc_ = 0.00663964
 On Iteration in Bisection 6
 a: 0.00664  b:-0.00290

 -0.19119 = (-0.20216 + -0.18021)/2.0
 sum -  nocc_ = 0.00184626
 On Iteration in Bisection 7
 a: 0.00185  b:-0.00290

 -0.19668 = (-0.20216 + -0.19119)/2.0
 sum -  nocc_ = -0.00052313
 On Iteration in Bisection 8
 a: -0.00052  b:-0.00290

 -0.19393 = (-0.19668 + -0.19119)/2.0
 sum -  nocc_ = 0.00066100
 On Iteration in Bisection 9
 a: 0.00066  b:-0.00052

 -0.19530 = (-0.19668 + -0.19393)/2.0
 sum -  nocc_ = 0.00006892
 On Iteration in Bisection 10
 a: 0.00007  b:-0.00052

 -0.19599 = (-0.19668 + -0.19530)/2.0
 sum -  nocc_ = -0.00022709
 On Iteration in Bisection 11
 a: -0.00023  b:-0.00052

 -0.19565 = (-0.19599 + -0.19530)/2.0
 sum -  nocc_ = -0.00007909
 On Iteration in Bisection 12
 a: -0.00008  b:-0.00023

 -0.19548 = (-0.19565 + -0.19530)/2.0
 sum -  nocc_ = -0.00000508
 On Iteration in Bisection 13
 a: -0.00001  b:-0.00008

 -0.19539 = (-0.19548 + -0.19530)/2.0
 sum -  nocc_ = 0.00003192
 On Iteration in Bisection 14
 a: 0.00003  b:-0.00001

 -0.19543 = (-0.19548 + -0.19539)/2.0
 sum -  nocc_ = 0.00001342
 On Iteration in Bisection 15
 a: 0.00001  b:-0.00001

 -0.19545 = (-0.19548 + -0.19543)/2.0
 sum -  nocc_ = 0.00000417
 On Iteration in Bisection 16
 a: 0.00000  b:-0.00001

 -0.19547 = (-0.19548 + -0.19545)/2.0
 sum -  nocc_ = -0.00000046
 On Iteration in Bisection 17
 a: -0.00000  b:-0.00001

 -0.19546 = (-0.19547 + -0.19545)/2.0
 sum -  nocc_ = 0.00000185
 On Iteration in Bisection 18
 a: 0.00000  b:-0.00000

 -0.19546 = (-0.19547 + -0.19546)/2.0
 sum -  nocc_ = 0.00000070
 On Iteration in Bisection 19
 a: 0.00000  b:-0.00000

 -0.19546 = (-0.19547 + -0.19546)/2.0
 sum -  nocc_ = 0.00000012
 On Iteration in Bisection 20
 a: 0.00000  b:-0.00000

 -0.19546 = (-0.19547 + -0.19546)/2.0
 sum -  nocc_ = -0.00000017
 On Iteration in Bisection 21
 a: -0.00000  b:-0.00000

 -0.19546 = (-0.19546 + -0.19546)/2.0
 sum -  nocc_ = -0.00000002
 On Iteration in Bisection 22
 a: -0.00000  b:-0.00000

 -0.19546 = (-0.19546 + -0.19546)/2.0
 sum -  nocc_ = 0.00000005
 On Iteration in Bisection 23
 a: 0.00000  b:-0.00000

 -0.19546 = (-0.19546 + -0.19546)/2.0
 sum -  nocc_ = 0.00000001
 On Iteration in Bisection 24
 a: 0.00000  b:-0.00000

 -0.19546 = (-0.19546 + -0.19546)/2.0
 sum -  nocc_ = -0.00000001
 ef = -0.19546 sum = 1.00000 

 Iter: 8  T:    20000.000  val:-0.195464  sumni 0.00000
 ne = 1.0000

 iter:9  failiter:9  energy:     -1.432919923210  total:     -1.025860531987  error:      0.000000195402
 In Bisection function HOMO = -0.466  LUMO =  2.344

 0.93931 = (-0.46558 + 2.34420)/2.0
 sum -  nocc_ = 2.97579534
 On Iteration in Bisection 0
 a: 2.97580  b:-0.49980

 0.23686 = (-0.46558 + 0.93931)/2.0
 sum -  nocc_ = 0.93200138
 On Iteration in Bisection 1
 a: 0.93200  b:-0.49980

 -0.11436 = (-0.46558 + 0.23686)/2.0
 sum -  nocc_ = 0.04424614
 On Iteration in Bisection 2
 a: 0.04425  b:-0.49980

 -0.28997 = (-0.46558 + -0.11436)/2.0
 sum -  nocc_ = -0.05565955
 On Iteration in Bisection 3
 a: -0.05566  b:-0.49980

 -0.20216 = (-0.28997 + -0.11436)/2.0
 sum -  nocc_ = -0.00289612
 On Iteration in Bisection 4
 a: -0.00290  b:-0.05566

 -0.15826 = (-0.20216 + -0.11436)/2.0
 sum -  nocc_ = 0.01691075
 On Iteration in Bisection 5
 a: 0.01691  b:-0.00290

 -0.18021 = (-0.20216 + -0.15826)/2.0
 sum -  nocc_ = 0.00663964
 On Iteration in Bisection 6
 a: 0.00664  b:-0.00290

 -0.19119 = (-0.20216 + -0.18021)/2.0
 sum -  nocc_ = 0.00184626
 On Iteration in Bisection 7
 a: 0.00185  b:-0.00290

 -0.19668 = (-0.20216 + -0.19119)/2.0
 sum -  nocc_ = -0.00052313
 On Iteration in Bisection 8
 a: -0.00052  b:-0.00290

 -0.19393 = (-0.19668 + -0.19119)/2.0
 sum -  nocc_ = 0.00066100
 On Iteration in Bisection 9
 a: 0.00066  b:-0.00052

 -0.19530 = (-0.19668 + -0.19393)/2.0
 sum -  nocc_ = 0.00006892
 On Iteration in Bisection 10
 a: 0.00007  b:-0.00052

 -0.19599 = (-0.19668 + -0.19530)/2.0
 sum -  nocc_ = -0.00022709
 On Iteration in Bisection 11
 a: -0.00023  b:-0.00052

 -0.19565 = (-0.19599 + -0.19530)/2.0
 sum -  nocc_ = -0.00007909
 On Iteration in Bisection 12
 a: -0.00008  b:-0.00023

 -0.19548 = (-0.19565 + -0.19530)/2.0
 sum -  nocc_ = -0.00000508
 On Iteration in Bisection 13
 a: -0.00001  b:-0.00008

 -0.19539 = (-0.19548 + -0.19530)/2.0
 sum -  nocc_ = 0.00003192
 On Iteration in Bisection 14
 a: 0.00003  b:-0.00001

 -0.19543 = (-0.19548 + -0.19539)/2.0
 sum -  nocc_ = 0.00001342
 On Iteration in Bisection 15
 a: 0.00001  b:-0.00001

 -0.19545 = (-0.19548 + -0.19543)/2.0
 sum -  nocc_ = 0.00000417
 On Iteration in Bisection 16
 a: 0.00000  b:-0.00001

 -0.19547 = (-0.19548 + -0.19545)/2.0
 sum -  nocc_ = -0.00000046
 On Iteration in Bisection 17
 a: -0.00000  b:-0.00001

 -0.19546 = (-0.19547 + -0.19545)/2.0
 sum -  nocc_ = 0.00000185
 On Iteration in Bisection 18
 a: 0.00000  b:-0.00000

 -0.19546 = (-0.19547 + -0.19546)/2.0
 sum -  nocc_ = 0.00000070
 On Iteration in Bisection 19
 a: 0.00000  b:-0.00000

 -0.19546 = (-0.19547 + -0.19546)/2.0
 sum -  nocc_ = 0.00000012
 On Iteration in Bisection 20
 a: 0.00000  b:-0.00000

 -0.19546 = (-0.19547 + -0.19546)/2.0
 sum -  nocc_ = -0.00000017
 On Iteration in Bisection 21
 a: -0.00000  b:-0.00000

 -0.19546 = (-0.19546 + -0.19546)/2.0
 sum -  nocc_ = -0.00000002
 On Iteration in Bisection 22
 a: -0.00000  b:-0.00000

 -0.19546 = (-0.19546 + -0.19546)/2.0
 sum -  nocc_ = 0.00000005
 On Iteration in Bisection 23
 a: 0.00000  b:-0.00000

 -0.19546 = (-0.19546 + -0.19546)/2.0
 sum -  nocc_ = 0.00000001
 On Iteration in Bisection 24
 a: 0.00000  b:-0.00000

 -0.19546 = (-0.19546 + -0.19546)/2.0
 sum -  nocc_ = -0.00000001
 ef = -0.19546 sum = 1.00000 

 Iter: 9  T:    20000.000  val:-0.195464  sumni 0.00000
 ne = 1.0000

 iter:10  failiter:10  energy:     -1.432919901842  total:     -1.025860510618  error:      0.000000021368
 In Bisection function HOMO = -0.466  LUMO =  2.344

 0.93931 = (-0.46558 + 2.34420)/2.0
 sum -  nocc_ = 2.97579534
 On Iteration in Bisection 0
 a: 2.97580  b:-0.49980

 0.23686 = (-0.46558 + 0.93931)/2.0
 sum -  nocc_ = 0.93200138
 On Iteration in Bisection 1
 a: 0.93200  b:-0.49980

 -0.11436 = (-0.46558 + 0.23686)/2.0
 sum -  nocc_ = 0.04424614
 On Iteration in Bisection 2
 a: 0.04425  b:-0.49980

 -0.28997 = (-0.46558 + -0.11436)/2.0
 sum -  nocc_ = -0.05565955
 On Iteration in Bisection 3
 a: -0.05566  b:-0.49980

 -0.20216 = (-0.28997 + -0.11436)/2.0
 sum -  nocc_ = -0.00289612
 On Iteration in Bisection 4
 a: -0.00290  b:-0.05566

 -0.15826 = (-0.20216 + -0.11436)/2.0
 sum -  nocc_ = 0.01691075
 On Iteration in Bisection 5
 a: 0.01691  b:-0.00290

 -0.18021 = (-0.20216 + -0.15826)/2.0
 sum -  nocc_ = 0.00663964
 On Iteration in Bisection 6
 a: 0.00664  b:-0.00290

 -0.19119 = (-0.20216 + -0.18021)/2.0
 sum -  nocc_ = 0.00184626
 On Iteration in Bisection 7
 a: 0.00185  b:-0.00290

 -0.19668 = (-0.20216 + -0.19119)/2.0
 sum -  nocc_ = -0.00052313
 On Iteration in Bisection 8
 a: -0.00052  b:-0.00290

 -0.19393 = (-0.19668 + -0.19119)/2.0
 sum -  nocc_ = 0.00066100
 On Iteration in Bisection 9
 a: 0.00066  b:-0.00052

 -0.19530 = (-0.19668 + -0.19393)/2.0
 sum -  nocc_ = 0.00006892
 On Iteration in Bisection 10
 a: 0.00007  b:-0.00052

 -0.19599 = (-0.19668 + -0.19530)/2.0
 sum -  nocc_ = -0.00022709
 On Iteration in Bisection 11
 a: -0.00023  b:-0.00052

 -0.19565 = (-0.19599 + -0.19530)/2.0
 sum -  nocc_ = -0.00007909
 On Iteration in Bisection 12
 a: -0.00008  b:-0.00023

 -0.19548 = (-0.19565 + -0.19530)/2.0
 sum -  nocc_ = -0.00000508
 On Iteration in Bisection 13
 a: -0.00001  b:-0.00008

 -0.19539 = (-0.19548 + -0.19530)/2.0
 sum -  nocc_ = 0.00003192
 On Iteration in Bisection 14
 a: 0.00003  b:-0.00001

 -0.19543 = (-0.19548 + -0.19539)/2.0
 sum -  nocc_ = 0.00001342
 On Iteration in Bisection 15
 a: 0.00001  b:-0.00001

 -0.19545 = (-0.19548 + -0.19543)/2.0
 sum -  nocc_ = 0.00000417
 On Iteration in Bisection 16
 a: 0.00000  b:-0.00001

 -0.19547 = (-0.19548 + -0.19545)/2.0
 sum -  nocc_ = -0.00000046
 On Iteration in Bisection 17
 a: -0.00000  b:-0.00001

 -0.19546 = (-0.19547 + -0.19545)/2.0
 sum -  nocc_ = 0.00000185
 On Iteration in Bisection 18
 a: 0.00000  b:-0.00000

 -0.19546 = (-0.19547 + -0.19546)/2.0
 sum -  nocc_ = 0.00000070
 On Iteration in Bisection 19
 a: 0.00000  b:-0.00000

 -0.19546 = (-0.19547 + -0.19546)/2.0
 sum -  nocc_ = 0.00000012
 On Iteration in Bisection 20
 a: 0.00000  b:-0.00000

 -0.19546 = (-0.19547 + -0.19546)/2.0
 sum -  nocc_ = -0.00000017
 On Iteration in Bisection 21
 a: -0.00000  b:-0.00000

 -0.19546 = (-0.19546 + -0.19546)/2.0
 sum -  nocc_ = -0.00000002
 On Iteration in Bisection 22
 a: -0.00000  b:-0.00000

 -0.19546 = (-0.19546 + -0.19546)/2.0
 sum -  nocc_ = 0.00000005
 On Iteration in Bisection 23
 a: 0.00000  b:-0.00000

 -0.19546 = (-0.19546 + -0.19546)/2.0
 sum -  nocc_ = 0.00000001
 On Iteration in Bisection 24
 a: 0.00000  b:-0.00000

 -0.19546 = (-0.19546 + -0.19546)/2.0
 sum -  nocc_ = -0.00000001
 ef = -0.19546 sum = 1.00000 

 Iter: 10  T:    20000.000  val:-0.195464  sumni 0.00000
 ne = 1.0000

 iter:11  failiter:11  energy:     -1.432919896163  total:     -1.025860504940  error:      0.000000005679
 In Bisection function HOMO = -0.466  LUMO =  2.344

 0.93931 = (-0.46558 + 2.34420)/2.0
 sum -  nocc_ = 2.97579534
 On Iteration in Bisection 0
 a: 2.97580  b:-0.49980

 0.23686 = (-0.46558 + 0.93931)/2.0
 sum -  nocc_ = 0.93200138
 On Iteration in Bisection 1
 a: 0.93200  b:-0.49980

 -0.11436 = (-0.46558 + 0.23686)/2.0
 sum -  nocc_ = 0.04424614
 On Iteration in Bisection 2
 a: 0.04425  b:-0.49980

 -0.28997 = (-0.46558 + -0.11436)/2.0
 sum -  nocc_ = -0.05565955
 On Iteration in Bisection 3
 a: -0.05566  b:-0.49980

 -0.20216 = (-0.28997 + -0.11436)/2.0
 sum -  nocc_ = -0.00289612
 On Iteration in Bisection 4
 a: -0.00290  b:-0.05566

 -0.15826 = (-0.20216 + -0.11436)/2.0
 sum -  nocc_ = 0.01691075
 On Iteration in Bisection 5
 a: 0.01691  b:-0.00290

 -0.18021 = (-0.20216 + -0.15826)/2.0
 sum -  nocc_ = 0.00663964
 On Iteration in Bisection 6
 a: 0.00664  b:-0.00290

 -0.19119 = (-0.20216 + -0.18021)/2.0
 sum -  nocc_ = 0.00184626
 On Iteration in Bisection 7
 a: 0.00185  b:-0.00290

 -0.19668 = (-0.20216 + -0.19119)/2.0
 sum -  nocc_ = -0.00052313
 On Iteration in Bisection 8
 a: -0.00052  b:-0.00290

 -0.19393 = (-0.19668 + -0.19119)/2.0
 sum -  nocc_ = 0.00066100
 On Iteration in Bisection 9
 a: 0.00066  b:-0.00052

 -0.19530 = (-0.19668 + -0.19393)/2.0
 sum -  nocc_ = 0.00006892
 On Iteration in Bisection 10
 a: 0.00007  b:-0.00052

 -0.19599 = (-0.19668 + -0.19530)/2.0
 sum -  nocc_ = -0.00022709
 On Iteration in Bisection 11
 a: -0.00023  b:-0.00052

 -0.19565 = (-0.19599 + -0.19530)/2.0
 sum -  nocc_ = -0.00007909
 On Iteration in Bisection 12
 a: -0.00008  b:-0.00023

 -0.19548 = (-0.19565 + -0.19530)/2.0
 sum -  nocc_ = -0.00000508
 On Iteration in Bisection 13
 a: -0.00001  b:-0.00008

 -0.19539 = (-0.19548 + -0.19530)/2.0
 sum -  nocc_ = 0.00003192
 On Iteration in Bisection 14
 a: 0.00003  b:-0.00001

 -0.19543 = (-0.19548 + -0.19539)/2.0
 sum -  nocc_ = 0.00001342
 On Iteration in Bisection 15
 a: 0.00001  b:-0.00001

 -0.19545 = (-0.19548 + -0.19543)/2.0
 sum -  nocc_ = 0.00000417
 On Iteration in Bisection 16
 a: 0.00000  b:-0.00001

 -0.19547 = (-0.19548 + -0.19545)/2.0
 sum -  nocc_ = -0.00000046
 On Iteration in Bisection 17
 a: -0.00000  b:-0.00001

 -0.19546 = (-0.19547 + -0.19545)/2.0
 sum -  nocc_ = 0.00000185
 On Iteration in Bisection 18
 a: 0.00000  b:-0.00000

 -0.19546 = (-0.19547 + -0.19546)/2.0
 sum -  nocc_ = 0.00000070
 On Iteration in Bisection 19
 a: 0.00000  b:-0.00000

 -0.19546 = (-0.19547 + -0.19546)/2.0
 sum -  nocc_ = 0.00000012
 On Iteration in Bisection 20
 a: 0.00000  b:-0.00000

 -0.19546 = (-0.19547 + -0.19546)/2.0
 sum -  nocc_ = -0.00000017
 On Iteration in Bisection 21
 a: -0.00000  b:-0.00000

 -0.19546 = (-0.19546 + -0.19546)/2.0
 sum -  nocc_ = -0.00000002
 On Iteration in Bisection 22
 a: -0.00000  b:-0.00000

 -0.19546 = (-0.19546 + -0.19546)/2.0
 sum -  nocc_ = 0.00000005
 On Iteration in Bisection 23
 a: 0.00000  b:-0.00000

 -0.19546 = (-0.19546 + -0.19546)/2.0
 sum -  nocc_ = 0.00000001
 On Iteration in Bisection 24
 a: 0.00000  b:-0.00000

 -0.19546 = (-0.19546 + -0.19546)/2.0
 sum -  nocc_ = -0.00000001
 ef = -0.19546 sum = 1.00000 

 Iter: 11  T:    20000.000  val:-0.195464  sumni 0.00000
 ne = 1.0000

 iter:12  failiter:12  energy:     -1.432919895139  total:     -1.025860503916  error:      0.000000001023
 In Bisection function HOMO = -0.466  LUMO =  2.344

 0.93931 = (-0.46558 + 2.34420)/2.0
 sum -  nocc_ = 2.97579534
 On Iteration in Bisection 0
 a: 2.97580  b:-0.49980

 0.23686 = (-0.46558 + 0.93931)/2.0
 sum -  nocc_ = 0.93200138
 On Iteration in Bisection 1
 a: 0.93200  b:-0.49980

 -0.11436 = (-0.46558 + 0.23686)/2.0
 sum -  nocc_ = 0.04424614
 On Iteration in Bisection 2
 a: 0.04425  b:-0.49980

 -0.28997 = (-0.46558 + -0.11436)/2.0
 sum -  nocc_ = -0.05565955
 On Iteration in Bisection 3
 a: -0.05566  b:-0.49980

 -0.20216 = (-0.28997 + -0.11436)/2.0
 sum -  nocc_ = -0.00289612
 On Iteration in Bisection 4
 a: -0.00290  b:-0.05566

 -0.15826 = (-0.20216 + -0.11436)/2.0
 sum -  nocc_ = 0.01691075
 On Iteration in Bisection 5
 a: 0.01691  b:-0.00290

 -0.18021 = (-0.20216 + -0.15826)/2.0
 sum -  nocc_ = 0.00663964
 On Iteration in Bisection 6
 a: 0.00664  b:-0.00290

 -0.19119 = (-0.20216 + -0.18021)/2.0
 sum -  nocc_ = 0.00184626
 On Iteration in Bisection 7
 a: 0.00185  b:-0.00290

 -0.19668 = (-0.20216 + -0.19119)/2.0
 sum -  nocc_ = -0.00052313
 On Iteration in Bisection 8
 a: -0.00052  b:-0.00290

 -0.19393 = (-0.19668 + -0.19119)/2.0
 sum -  nocc_ = 0.00066100
 On Iteration in Bisection 9
 a: 0.00066  b:-0.00052

 -0.19530 = (-0.19668 + -0.19393)/2.0
 sum -  nocc_ = 0.00006892
 On Iteration in Bisection 10
 a: 0.00007  b:-0.00052

 -0.19599 = (-0.19668 + -0.19530)/2.0
 sum -  nocc_ = -0.00022709
 On Iteration in Bisection 11
 a: -0.00023  b:-0.00052

 -0.19565 = (-0.19599 + -0.19530)/2.0
 sum -  nocc_ = -0.00007909
 On Iteration in Bisection 12
 a: -0.00008  b:-0.00023

 -0.19548 = (-0.19565 + -0.19530)/2.0
 sum -  nocc_ = -0.00000508
 On Iteration in Bisection 13
 a: -0.00001  b:-0.00008

 -0.19539 = (-0.19548 + -0.19530)/2.0
 sum -  nocc_ = 0.00003192
 On Iteration in Bisection 14
 a: 0.00003  b:-0.00001

 -0.19543 = (-0.19548 + -0.19539)/2.0
 sum -  nocc_ = 0.00001342
 On Iteration in Bisection 15
 a: 0.00001  b:-0.00001

 -0.19545 = (-0.19548 + -0.19543)/2.0
 sum -  nocc_ = 0.00000417
 On Iteration in Bisection 16
 a: 0.00000  b:-0.00001

 -0.19547 = (-0.19548 + -0.19545)/2.0
 sum -  nocc_ = -0.00000046
 On Iteration in Bisection 17
 a: -0.00000  b:-0.00001

 -0.19546 = (-0.19547 + -0.19545)/2.0
 sum -  nocc_ = 0.00000185
 On Iteration in Bisection 18
 a: 0.00000  b:-0.00000

 -0.19546 = (-0.19547 + -0.19546)/2.0
 sum -  nocc_ = 0.00000070
 On Iteration in Bisection 19
 a: 0.00000  b:-0.00000

 -0.19546 = (-0.19547 + -0.19546)/2.0
 sum -  nocc_ = 0.00000012
 On Iteration in Bisection 20
 a: 0.00000  b:-0.00000

 -0.19546 = (-0.19547 + -0.19546)/2.0
 sum -  nocc_ = -0.00000017
 On Iteration in Bisection 21
 a: -0.00000  b:-0.00000

 -0.19546 = (-0.19546 + -0.19546)/2.0
 sum -  nocc_ = -0.00000002
 On Iteration in Bisection 22
 a: -0.00000  b:-0.00000

 -0.19546 = (-0.19546 + -0.19546)/2.0
 sum -  nocc_ = 0.00000005
 On Iteration in Bisection 23
 a: 0.00000  b:-0.00000

 -0.19546 = (-0.19546 + -0.19546)/2.0
 sum -  nocc_ = 0.00000001
 On Iteration in Bisection 24
 a: 0.00000  b:-0.00000

 -0.19546 = (-0.19546 + -0.19546)/2.0
 sum -  nocc_ = -0.00000001
 ef = -0.19546 sum = 1.00000 

 Iter: 12  T:    20000.000  val:-0.195464  sumni 0.00000
 ne = 1.0000

 iter:13  failiter:13  energy:     -1.432919894961  total:     -1.025860503738  error:      0.000000000178
 In Bisection function HOMO = -0.466  LUMO =  2.344

 0.93931 = (-0.46558 + 2.34420)/2.0
 sum -  nocc_ = 2.97579534
 On Iteration in Bisection 0
 a: 2.97580  b:-0.49980

 0.23686 = (-0.46558 + 0.93931)/2.0
 sum -  nocc_ = 0.93200138
 On Iteration in Bisection 1
 a: 0.93200  b:-0.49980

 -0.11436 = (-0.46558 + 0.23686)/2.0
 sum -  nocc_ = 0.04424614
 On Iteration in Bisection 2
 a: 0.04425  b:-0.49980

 -0.28997 = (-0.46558 + -0.11436)/2.0
 sum -  nocc_ = -0.05565955
 On Iteration in Bisection 3
 a: -0.05566  b:-0.49980

 -0.20216 = (-0.28997 + -0.11436)/2.0
 sum -  nocc_ = -0.00289612
 On Iteration in Bisection 4
 a: -0.00290  b:-0.05566

 -0.15826 = (-0.20216 + -0.11436)/2.0
 sum -  nocc_ = 0.01691075
 On Iteration in Bisection 5
 a: 0.01691  b:-0.00290

 -0.18021 = (-0.20216 + -0.15826)/2.0
 sum -  nocc_ = 0.00663964
 On Iteration in Bisection 6
 a: 0.00664  b:-0.00290

 -0.19119 = (-0.20216 + -0.18021)/2.0
 sum -  nocc_ = 0.00184626
 On Iteration in Bisection 7
 a: 0.00185  b:-0.00290

 -0.19668 = (-0.20216 + -0.19119)/2.0
 sum -  nocc_ = -0.00052313
 On Iteration in Bisection 8
 a: -0.00052  b:-0.00290

 -0.19393 = (-0.19668 + -0.19119)/2.0
 sum -  nocc_ = 0.00066100
 On Iteration in Bisection 9
 a: 0.00066  b:-0.00052

 -0.19530 = (-0.19668 + -0.19393)/2.0
 sum -  nocc_ = 0.00006892
 On Iteration in Bisection 10
 a: 0.00007  b:-0.00052

 -0.19599 = (-0.19668 + -0.19530)/2.0
 sum -  nocc_ = -0.00022709
 On Iteration in Bisection 11
 a: -0.00023  b:-0.00052

 -0.19565 = (-0.19599 + -0.19530)/2.0
 sum -  nocc_ = -0.00007909
 On Iteration in Bisection 12
 a: -0.00008  b:-0.00023

 -0.19548 = (-0.19565 + -0.19530)/2.0
 sum -  nocc_ = -0.00000508
 On Iteration in Bisection 13
 a: -0.00001  b:-0.00008

 -0.19539 = (-0.19548 + -0.19530)/2.0
 sum -  nocc_ = 0.00003192
 On Iteration in Bisection 14
 a: 0.00003  b:-0.00001

 -0.19543 = (-0.19548 + -0.19539)/2.0
 sum -  nocc_ = 0.00001342
 On Iteration in Bisection 15
 a: 0.00001  b:-0.00001

 -0.19545 = (-0.19548 + -0.19543)/2.0
 sum -  nocc_ = 0.00000417
 On Iteration in Bisection 16
 a: 0.00000  b:-0.00001

 -0.19547 = (-0.19548 + -0.19545)/2.0
 sum -  nocc_ = -0.00000046
 On Iteration in Bisection 17
 a: -0.00000  b:-0.00001

 -0.19546 = (-0.19547 + -0.19545)/2.0
 sum -  nocc_ = 0.00000185
 On Iteration in Bisection 18
 a: 0.00000  b:-0.00000

 -0.19546 = (-0.19547 + -0.19546)/2.0
 sum -  nocc_ = 0.00000070
 On Iteration in Bisection 19
 a: 0.00000  b:-0.00000

 -0.19546 = (-0.19547 + -0.19546)/2.0
 sum -  nocc_ = 0.00000012
 On Iteration in Bisection 20
 a: 0.00000  b:-0.00000

 -0.19546 = (-0.19547 + -0.19546)/2.0
 sum -  nocc_ = -0.00000017
 On Iteration in Bisection 21
 a: -0.00000  b:-0.00000

 -0.19546 = (-0.19546 + -0.19546)/2.0
 sum -  nocc_ = -0.00000002
 On Iteration in Bisection 22
 a: -0.00000  b:-0.00000

 -0.19546 = (-0.19546 + -0.19546)/2.0
 sum -  nocc_ = 0.00000005
 On Iteration in Bisection 23
 a: 0.00000  b:-0.00000

 -0.19546 = (-0.19546 + -0.19546)/2.0
 sum -  nocc_ = 0.00000001
 On Iteration in Bisection 24
 a: 0.00000  b:-0.00000

 -0.19546 = (-0.19546 + -0.19546)/2.0
 sum -  nocc_ = -0.00000001
 ef = -0.19546 sum = 1.00000 

 Iter: 13  T:    20000.000  val:-0.195464  sumni 0.00000
 ne = 1.0000

 iter:14  failiter:14  energy:     -1.432919894930  total:     -1.025860503707  error:      0.000000000031
 In Bisection function HOMO = -0.466  LUMO =  2.344

 0.93931 = (-0.46558 + 2.34420)/2.0
 sum -  nocc_ = 2.97579534
 On Iteration in Bisection 0
 a: 2.97580  b:-0.49980

 0.23686 = (-0.46558 + 0.93931)/2.0
 sum -  nocc_ = 0.93200138
 On Iteration in Bisection 1
 a: 0.93200  b:-0.49980

 -0.11436 = (-0.46558 + 0.23686)/2.0
 sum -  nocc_ = 0.04424614
 On Iteration in Bisection 2
 a: 0.04425  b:-0.49980

 -0.28997 = (-0.46558 + -0.11436)/2.0
 sum -  nocc_ = -0.05565955
 On Iteration in Bisection 3
 a: -0.05566  b:-0.49980

 -0.20216 = (-0.28997 + -0.11436)/2.0
 sum -  nocc_ = -0.00289612
 On Iteration in Bisection 4
 a: -0.00290  b:-0.05566

 -0.15826 = (-0.20216 + -0.11436)/2.0
 sum -  nocc_ = 0.01691075
 On Iteration in Bisection 5
 a: 0.01691  b:-0.00290

 -0.18021 = (-0.20216 + -0.15826)/2.0
 sum -  nocc_ = 0.00663964
 On Iteration in Bisection 6
 a: 0.00664  b:-0.00290

 -0.19119 = (-0.20216 + -0.18021)/2.0
 sum -  nocc_ = 0.00184626
 On Iteration in Bisection 7
 a: 0.00185  b:-0.00290

 -0.19668 = (-0.20216 + -0.19119)/2.0
 sum -  nocc_ = -0.00052313
 On Iteration in Bisection 8
 a: -0.00052  b:-0.00290

 -0.19393 = (-0.19668 + -0.19119)/2.0
 sum -  nocc_ = 0.00066100
 On Iteration in Bisection 9
 a: 0.00066  b:-0.00052

 -0.19530 = (-0.19668 + -0.19393)/2.0
 sum -  nocc_ = 0.00006892
 On Iteration in Bisection 10
 a: 0.00007  b:-0.00052

 -0.19599 = (-0.19668 + -0.19530)/2.0
 sum -  nocc_ = -0.00022709
 On Iteration in Bisection 11
 a: -0.00023  b:-0.00052

 -0.19565 = (-0.19599 + -0.19530)/2.0
 sum -  nocc_ = -0.00007909
 On Iteration in Bisection 12
 a: -0.00008  b:-0.00023

 -0.19548 = (-0.19565 + -0.19530)/2.0
 sum -  nocc_ = -0.00000508
 On Iteration in Bisection 13
 a: -0.00001  b:-0.00008

 -0.19539 = (-0.19548 + -0.19530)/2.0
 sum -  nocc_ = 0.00003192
 On Iteration in Bisection 14
 a: 0.00003  b:-0.00001

 -0.19543 = (-0.19548 + -0.19539)/2.0
 sum -  nocc_ = 0.00001342
 On Iteration in Bisection 15
 a: 0.00001  b:-0.00001

 -0.19545 = (-0.19548 + -0.19543)/2.0
 sum -  nocc_ = 0.00000417
 On Iteration in Bisection 16
 a: 0.00000  b:-0.00001

 -0.19547 = (-0.19548 + -0.19545)/2.0
 sum -  nocc_ = -0.00000046
 On Iteration in Bisection 17
 a: -0.00000  b:-0.00001

 -0.19546 = (-0.19547 + -0.19545)/2.0
 sum -  nocc_ = 0.00000185
 On Iteration in Bisection 18
 a: 0.00000  b:-0.00000

 -0.19546 = (-0.19547 + -0.19546)/2.0
 sum -  nocc_ = 0.00000070
 On Iteration in Bisection 19
 a: 0.00000  b:-0.00000

 -0.19546 = (-0.19547 + -0.19546)/2.0
 sum -  nocc_ = 0.00000012
 On Iteration in Bisection 20
 a: 0.00000  b:-0.00000

 -0.19546 = (-0.19547 + -0.19546)/2.0
 sum -  nocc_ = -0.00000017
 On Iteration in Bisection 21
 a: -0.00000  b:-0.00000

 -0.19546 = (-0.19546 + -0.19546)/2.0
 sum -  nocc_ = -0.00000002
 On Iteration in Bisection 22
 a: -0.00000  b:-0.00000

 -0.19546 = (-0.19546 + -0.19546)/2.0
 sum -  nocc_ = 0.00000005
 On Iteration in Bisection 23
 a: 0.00000  b:-0.00000

 -0.19546 = (-0.19546 + -0.19546)/2.0
 sum -  nocc_ = 0.00000001
 On Iteration in Bisection 24
 a: 0.00000  b:-0.00000

 -0.19546 = (-0.19546 + -0.19546)/2.0
 sum -  nocc_ = -0.00000001
 ef = -0.19546 sum = 1.00000 

 Iter: 14  T:    20000.000  val:-0.195464  sumni 0.00000
 ne = 1.0000

 iter:15  failiter:15  energy:     -1.432919894924  total:     -1.025860503701  error:      0.000000000006
 In Bisection function HOMO = -0.466  LUMO =  2.344

 0.93931 = (-0.46558 + 2.34420)/2.0
 sum -  nocc_ = 2.97579534
 On Iteration in Bisection 0
 a: 2.97580  b:-0.49980

 0.23686 = (-0.46558 + 0.93931)/2.0
 sum -  nocc_ = 0.93200138
 On Iteration in Bisection 1
 a: 0.93200  b:-0.49980

 -0.11436 = (-0.46558 + 0.23686)/2.0
 sum -  nocc_ = 0.04424614
 On Iteration in Bisection 2
 a: 0.04425  b:-0.49980

 -0.28997 = (-0.46558 + -0.11436)/2.0
 sum -  nocc_ = -0.05565955
 On Iteration in Bisection 3
 a: -0.05566  b:-0.49980

 -0.20216 = (-0.28997 + -0.11436)/2.0
 sum -  nocc_ = -0.00289612
 On Iteration in Bisection 4
 a: -0.00290  b:-0.05566

 -0.15826 = (-0.20216 + -0.11436)/2.0
 sum -  nocc_ = 0.01691075
 On Iteration in Bisection 5
 a: 0.01691  b:-0.00290

 -0.18021 = (-0.20216 + -0.15826)/2.0
 sum -  nocc_ = 0.00663964
 On Iteration in Bisection 6
 a: 0.00664  b:-0.00290

 -0.19119 = (-0.20216 + -0.18021)/2.0
 sum -  nocc_ = 0.00184626
 On Iteration in Bisection 7
 a: 0.00185  b:-0.00290

 -0.19668 = (-0.20216 + -0.19119)/2.0
 sum -  nocc_ = -0.00052313
 On Iteration in Bisection 8
 a: -0.00052  b:-0.00290

 -0.19393 = (-0.19668 + -0.19119)/2.0
 sum -  nocc_ = 0.00066100
 On Iteration in Bisection 9
 a: 0.00066  b:-0.00052

 -0.19530 = (-0.19668 + -0.19393)/2.0
 sum -  nocc_ = 0.00006892
 On Iteration in Bisection 10
 a: 0.00007  b:-0.00052

 -0.19599 = (-0.19668 + -0.19530)/2.0
 sum -  nocc_ = -0.00022709
 On Iteration in Bisection 11
 a: -0.00023  b:-0.00052

 -0.19565 = (-0.19599 + -0.19530)/2.0
 sum -  nocc_ = -0.00007909
 On Iteration in Bisection 12
 a: -0.00008  b:-0.00023

 -0.19548 = (-0.19565 + -0.19530)/2.0
 sum -  nocc_ = -0.00000508
 On Iteration in Bisection 13
 a: -0.00001  b:-0.00008

 -0.19539 = (-0.19548 + -0.19530)/2.0
 sum -  nocc_ = 0.00003192
 On Iteration in Bisection 14
 a: 0.00003  b:-0.00001

 -0.19543 = (-0.19548 + -0.19539)/2.0
 sum -  nocc_ = 0.00001342
 On Iteration in Bisection 15
 a: 0.00001  b:-0.00001

 -0.19545 = (-0.19548 + -0.19543)/2.0
 sum -  nocc_ = 0.00000417
 On Iteration in Bisection 16
 a: 0.00000  b:-0.00001

 -0.19547 = (-0.19548 + -0.19545)/2.0
 sum -  nocc_ = -0.00000046
 On Iteration in Bisection 17
 a: -0.00000  b:-0.00001

 -0.19546 = (-0.19547 + -0.19545)/2.0
 sum -  nocc_ = 0.00000185
 On Iteration in Bisection 18
 a: 0.00000  b:-0.00000

 -0.19546 = (-0.19547 + -0.19546)/2.0
 sum -  nocc_ = 0.00000070
 On Iteration in Bisection 19
 a: 0.00000  b:-0.00000

 -0.19546 = (-0.19547 + -0.19546)/2.0
 sum -  nocc_ = 0.00000012
 On Iteration in Bisection 20
 a: 0.00000  b:-0.00000

 -0.19546 = (-0.19547 + -0.19546)/2.0
 sum -  nocc_ = -0.00000017
 On Iteration in Bisection 21
 a: -0.00000  b:-0.00000

 -0.19546 = (-0.19546 + -0.19546)/2.0
 sum -  nocc_ = -0.00000002
 On Iteration in Bisection 22
 a: -0.00000  b:-0.00000

 -0.19546 = (-0.19546 + -0.19546)/2.0
 sum -  nocc_ = 0.00000005
 On Iteration in Bisection 23
 a: 0.00000  b:-0.00000

 -0.19546 = (-0.19546 + -0.19546)/2.0
 sum -  nocc_ = 0.00000001
 On Iteration in Bisection 24
 a: 0.00000  b:-0.00000

 -0.19546 = (-0.19546 + -0.19546)/2.0
 sum -  nocc_ = -0.00000001
 ef = -0.19546 sum = 1.00000 

 Iter: 15  T:    20000.000  val:-0.195464  sumni 0.00000
 ne = 1.0000

 iter:16  failiter:16  energy:     -1.432919894923  total:     -1.025860503700  error:      0.000000000001
 FTHFEnergy =    -1.025861
 FD_dis[0] = 0.98614369 with -0.465581 eig value
 FD_dis[1] = 0.01385227 with 0.074671 eig value
 FD_dis[2] = 0.00000337 with 0.602646 eig value
 FD_dis[3] = 0.00000067 with 0.704893 eig value
 FD_dis[4] = 0.00000000 with 1.334545 eig value
 FD_dis[5] = 0.00000000 with 1.334545 eig value
 FD_dis[6] = 0.00000000 with 1.384884 eig value
 FD_dis[7] = 0.00000000 with 1.700231 eig value
 FD_dis[8] = 0.00000000 with 1.700231 eig value
 FD_dis[9] = 0.00000000 with 2.344200 eig value
*** PSI4 exiting successfully. Buy a developer a beer!
