    -----------------------------------------------------------------------
          PSI4: An Open-Source Ab Initio Electronic Structure Package
                              PSI 4.0 Driver

               Git: Rev {master} 556e8139d3cfa1f96ccffe2cdf22cc56a185d2b2

    J. M. Turney, A. C. Simmonett, R. M. Parrish, E. G. Hohenstein,
    F. A. Evangelista, J. T. Fermann, B. J. Mintz, L. A. Burns, J. J. Wilke,
    M. L. Abrams, N. J. Russ, M. L. Leininger, C. L. Janssen, E. T. Seidl,
    W. D. Allen, H. F. Schaefer, R. A. King, E. F. Valeev, C. D. Sherrill,
    and T. D. Crawford, WIREs Comput. Mol. Sci. 2, 556-565 (2012)
    (doi: 10.1002/wcms.93)

                         Additional Contributions by
    A. E. DePrince, M. Saitow, U. Bozkaya, A. Yu. Sokolov
    -----------------------------------------------------------------------

    Process ID:  11947
    PSI4DATADIR: /Users/kevinhannon/Programs/psi4cmake/psi4/lib
    Memory level set to 256.000 MB

  ==> Input File <==

--------------------------------------------------------------------------

# PYTHONPATH must include directory above plugin directory.
#     Define either externally or here, then import plugin.
sys.path.insert(0, '/Users/kevinhannon/Programs/Quantum_Programs/Quantum-Programs/GS/')
import scf

molecule {
0 1
H
H 1 2.20000
symmetry c1
units angstrom
}


set {
  basis cc-pvdz
  reference rhf
  scf_type  pk
}

set scf {
  DO_FTHF true
  MAX_ITER 130
  MAX_TEMP 100
  TEMP_INCREMENT 0
  bisect  true
  bisect_iter  40
}
energy('rhf')

energy('scf')


--------------------------------------------------------------------------

*** tstart() called on Kevins-MacBook-Pro.local
*** at Fri Apr 10 18:02:12 2015

/Users/kevinhannon/Programs/Quantum_Programs/Quantum-Programs/GS/scf/scf.so loaded.

*** tstart() called on Kevins-MacBook-Pro.local
*** at Fri Apr 10 18:02:12 2015


         ---------------------------------------------------------
                                   SCF
            by Justin Turney, Rob Parrish, and Andy Simmonett
                              RHF Reference
                        1 Threads,    256 MiB Core
         ---------------------------------------------------------

  ==> Geometry <==

    Molecular point group: c1
    Full point group: D_inf_h

    Geometry (in Angstrom), charge = 0, multiplicity = 1:

       Center              X                  Y                   Z       
    ------------   -----------------  -----------------  -----------------
           H          0.000000000000     0.000000000000    -1.100000000000
           H          0.000000000000     0.000000000000     1.100000000000

  Running in c1 symmetry.

  Rotational constants: A = ************  B =      6.91188  C =      6.91188 [cm^-1]
  Rotational constants: A = ************  B = 207212.85237  C = 207212.85237 [MHz]
  Nuclear repulsion =    0.240535094813636

  Charge       = 0
  Multiplicity = 1
  Electrons    = 2
  Nalpha       = 1
  Nbeta        = 1

  ==> Algorithm <==

  SCF Algorithm Type is PK.
  DIIS enabled.
  MOM disabled.
  Fractional occupation disabled.
  Guess Type is CORE.
  Energy threshold   = 1.00e-06
  Density threshold  = 1.00e-06
  Integral threshold = 0.00e+00

  ==> Primary Basis <==

  Basis Set: CC-PVDZ
    Number of shells: 6
    Number of basis function: 10
    Number of Cartesian functions: 10
    Spherical Harmonics?: true
    Max angular momentum: 1

  ==> Pre-Iterations <==

   -------------------------------------------------------
    Irrep   Nso     Nmo     Nalpha   Nbeta   Ndocc  Nsocc
   -------------------------------------------------------
     A         10      10       0       0       0       0
   -------------------------------------------------------
    Total      10      10       1       1       1       0
   -------------------------------------------------------

  Starting with a DF guess...

 OEINTS: Overlap, kinetic, potential, dipole, and quadrupole integrals
         stored in file 35.

  ==> Integral Setup <==

  ==> DFJK: Density-Fitted J/K Matrices <==

    J tasked:                  Yes
    K tasked:                  Yes
    wK tasked:                  No
    OpenMP threads:              1
    Integrals threads:           1
    Memory (MB):               183
    Algorithm:                Core
    Integral Cache:           NONE
    Schwarz Cutoff:          1E-12
    Fitting Condition:       1E-12

   => Auxiliary Basis Set <=

  Basis Set: 
    Number of shells: 18
    Number of basis function: 46
    Number of Cartesian functions: 50
    Spherical Harmonics?: true
    Max angular momentum: 2

  Minimum eigenvalue in the overlap matrix is 2.2957858869E-01.
  Using Symmetric Orthogonalization.
  SCF Guess: Core (One-Electron) Hamiltonian.

  ==> Iterations <==

                           Total Energy        Delta E     RMS |[F,P]|

   @DF-RHF iter   1:    -0.87755025207677   -8.77550e-01   1.32345e-02 
   @DF-RHF iter   2:    -0.89616168389319   -1.86114e-02   2.28418e-03 DIIS
   @DF-RHF iter   3:    -0.89675973151161   -5.98048e-04   6.16157e-05 DIIS
   @DF-RHF iter   4:    -0.89676007282063   -3.41309e-07   7.49100e-07 DIIS

  DF guess converged.

  ==> Integral Setup <==

 MINTS: Wrapper to libmints.
   by Justin Turney

   Calculation information:
      Number of atoms:                   2
      Number of AO shells:               6
      Number of SO shells:               6
      Number of primitives:             10
      Number of atomic orbitals:        10
      Number of basis functions:        10

      Number of irreps:                  1
      Integral cutoff                 0.00e+00
      Number of functions per irrep: [  10 ]

 OEINTS: Overlap, kinetic, potential, dipole, and quadrupole integrals
         stored in file 35.

      Computing two-electron integrals...done
      Computed 512 non-zero two-electron integrals.
        Stored in file 33.

	Batch   1 pq = [       0,      55] index = [             0,1540]
  ==> DiskJK: Disk-Based J/K Matrices <==

    J tasked:                  Yes
    K tasked:                  Yes
    wK tasked:                  No
    Memory (MB):               183
    Schwarz Cutoff:          1E-12

   @RHF iter   5:    -0.89674635395574    1.37189e-05   4.98107e-06 DIIS
   @RHF iter   6:    -0.89674635636924   -2.41351e-09   8.21413e-07 DIIS

  ==> Post-Iterations <==

    Orbital Energies (a.u.)
    -----------------------

    Doubly Occupied:                                                      

       1A     -0.369595  

    Virtual:                                                              

       2A     -0.058084     3A      0.653160     4A      0.657028  
       5A      1.404699     6A      1.461011     7A      1.461011  
       8A      1.483636     9A      1.483636    10A      1.608539  

    Final Occupation by Irrep:
              A 
    DOCC [     1 ]

  Energy converged.

  @RHF Final Energy:    -0.89674635636924

   => Energetics <=

    Nuclear Repulsion Energy =              0.2405350948136364
    One-Electron Energy =                  -1.5353707184118401
    Two-Electron Energy =                   0.3980892672289619
    DFT Exchange-Correlation Energy =       0.0000000000000000
    Empirical Dispersion Energy =           0.0000000000000000
    PCM Polarization Energy =               0.0000000000000000
    EFP Energy =                            0.0000000000000000
    Total Energy =                         -0.8967463563692418

    Alert: EFP and PCM quantities not currently incorporated into SCF psivars.

Properties will be evaluated at   0.000000,   0.000000,   0.000000 Bohr
  ==> Properties <==


Properties computed using the SCF density matrix

  Nuclear Dipole Moment: (a.u.)
     X:     0.0000      Y:     0.0000      Z:     0.0000

  Electronic Dipole Moment: (a.u.)
     X:    -0.0000      Y:     0.0000      Z:    -0.0000

  Dipole Moment: (a.u.)
     X:    -0.0000      Y:     0.0000      Z:    -0.0000     Total:     0.0000

  Dipole Moment: (Debye)
     X:    -0.0000      Y:     0.0000      Z:    -0.0000     Total:     0.0000


  Saving occupied orbitals to File 180.

*** tstop() called on Kevins-MacBook-Pro.local at Fri Apr 10 18:02:12 2015
Module time:
	user time   =       0.21 seconds =       0.00 minutes
	system time =       0.01 seconds =       0.00 minutes
	total time  =          0 seconds =       0.00 minutes
Total time:
	user time   =       0.22 seconds =       0.00 minutes
	system time =       0.01 seconds =       0.00 minutes
	total time  =          0 seconds =       0.00 minutes

*** tstart() called on Kevins-MacBook-Pro.local
*** at Fri Apr 10 18:02:12 2015


         ---------------------------------------------------------
                                   SCF
            by Justin Turney, Rob Parrish, and Andy Simmonett
                              RHF Reference
                        1 Threads,    256 MiB Core
         ---------------------------------------------------------

  ==> Geometry <==

    Molecular point group: c1
    Full point group: D_inf_h

    Geometry (in Angstrom), charge = 0, multiplicity = 1:

       Center              X                  Y                   Z       
    ------------   -----------------  -----------------  -----------------
           H          0.000000000000     0.000000000000    -1.100000000000
           H          0.000000000000     0.000000000000     1.100000000000

  Running in c1 symmetry.

  Rotational constants: A = ************  B =      6.91188  C =      6.91188 [cm^-1]
  Rotational constants: A = ************  B = 207212.85237  C = 207212.85237 [MHz]
  Nuclear repulsion =    0.240535094813636

  Charge       = 0
  Multiplicity = 1
  Electrons    = 2
  Nalpha       = 1
  Nbeta        = 1

  ==> Algorithm <==

  SCF Algorithm Type is PK.
  DIIS enabled.
  MOM disabled.
  Fractional occupation disabled.
  Guess Type is CORE.
  Energy threshold   = 1.00e-08
  Density threshold  = 1.00e-08
  Integral threshold = 0.00e+00

  ==> Primary Basis <==

  Basis Set: CC-PVDZ
    Number of shells: 6
    Number of basis function: 10
    Number of Cartesian functions: 10
    Spherical Harmonics?: true
    Max angular momentum: 1

  ==> Pre-Iterations <==

   -------------------------------------------------------
    Irrep   Nso     Nmo     Nalpha   Nbeta   Ndocc  Nsocc
   -------------------------------------------------------
     A         10      10       0       0       0       0
   -------------------------------------------------------
    Total      10      10       1       1       1       0
   -------------------------------------------------------

  Starting with a DF guess...

 OEINTS: Overlap, kinetic, potential, dipole, and quadrupole integrals
         stored in file 35.

  ==> Integral Setup <==

  ==> DFJK: Density-Fitted J/K Matrices <==

    J tasked:                  Yes
    K tasked:                  Yes
    wK tasked:                  No
    OpenMP threads:              1
    Integrals threads:           1
    Memory (MB):               183
    Algorithm:                Core
    Integral Cache:           NONE
    Schwarz Cutoff:          1E-12
    Fitting Condition:       1E-12

   => Auxiliary Basis Set <=

  Basis Set: 
    Number of shells: 18
    Number of basis function: 46
    Number of Cartesian functions: 50
    Spherical Harmonics?: true
    Max angular momentum: 2

  Minimum eigenvalue in the overlap matrix is 2.2957858869E-01.
  Using Symmetric Orthogonalization.
  SCF Guess: Core (One-Electron) Hamiltonian.

  ==> Iterations <==

                           Total Energy        Delta E     RMS |[F,P]|

   @DF-RHF iter   1:    -0.87755025207677   -8.77550e-01   1.32345e-02 
   @DF-RHF iter   2:    -0.89616168389319   -1.86114e-02   2.28418e-03 DIIS
   @DF-RHF iter   3:    -0.89675973151161   -5.98048e-04   6.16157e-05 DIIS
   @DF-RHF iter   4:    -0.89676007282063   -3.41309e-07   7.49100e-07 DIIS
   @DF-RHF iter   5:    -0.89676007286322   -4.25902e-11   1.66521e-10 DIIS

  DF guess converged.

  ==> Integral Setup <==

 MINTS: Wrapper to libmints.
   by Justin Turney

   Calculation information:
      Number of atoms:                   2
      Number of AO shells:               6
      Number of SO shells:               6
      Number of primitives:             10
      Number of atomic orbitals:        10
      Number of basis functions:        10

      Number of irreps:                  1
      Integral cutoff                 0.00e+00
      Number of functions per irrep: [  10 ]

 OEINTS: Overlap, kinetic, potential, dipole, and quadrupole integrals
         stored in file 35.

      Computing two-electron integrals...done
      Computed 512 non-zero two-electron integrals.
        Stored in file 33.

	Batch   1 pq = [       0,      55] index = [             0,1540]
  ==> DiskJK: Disk-Based J/K Matrices <==

    J tasked:                  Yes
    K tasked:                  Yes
    wK tasked:                  No
    Memory (MB):               183
    Schwarz Cutoff:          1E-12

   @RHF iter   6:    -0.89674635395591    1.37189e-05   4.98091e-06 DIIS
   @RHF iter   7:    -0.89674635636925   -2.41334e-09   8.21385e-07 DIIS
   @RHF iter   8:    -0.89674635644266   -7.34151e-11   2.71715e-08 DIIS
   @RHF iter   9:    -0.89674635644273   -7.12763e-14   1.13697e-13 DIIS

  ==> Post-Iterations <==

    Orbital Energies (a.u.)
    -----------------------

    Doubly Occupied:                                                      

       1A     -0.369595  

    Virtual:                                                              

       2A     -0.058084     3A      0.653160     4A      0.657028  
       5A      1.404699     6A      1.461011     7A      1.461011  
       8A      1.483636     9A      1.483636    10A      1.608539  

    Final Occupation by Irrep:
              A 
    DOCC [     1 ]

  Energy converged.

  @RHF Final Energy:    -0.89674635644273

   => Energetics <=

    Nuclear Repulsion Energy =              0.2405350948136364
    One-Electron Energy =                  -1.5353728088586907
    Two-Electron Energy =                   0.3980913576023205
    DFT Exchange-Correlation Energy =       0.0000000000000000
    Empirical Dispersion Energy =           0.0000000000000000
    PCM Polarization Energy =               0.0000000000000000
    EFP Energy =                            0.0000000000000000
    Total Energy =                         -0.8967463564427337

    Alert: EFP and PCM quantities not currently incorporated into SCF psivars.

Properties will be evaluated at   0.000000,   0.000000,   0.000000 Bohr
  ==> Properties <==


Properties computed using the SCF density matrix

  Nuclear Dipole Moment: (a.u.)
     X:     0.0000      Y:     0.0000      Z:     0.0000

  Electronic Dipole Moment: (a.u.)
     X:    -0.0000      Y:    -0.0000      Z:    -0.0000

  Dipole Moment: (a.u.)
     X:    -0.0000      Y:    -0.0000      Z:    -0.0000     Total:     0.0000

  Dipole Moment: (Debye)
     X:    -0.0000      Y:    -0.0000      Z:    -0.0000     Total:     0.0000


  Saving occupied orbitals to File 180.

*** tstop() called on Kevins-MacBook-Pro.local at Fri Apr 10 18:02:13 2015
Module time:
	user time   =       0.19 seconds =       0.00 minutes
	system time =       0.01 seconds =       0.00 minutes
	total time  =          1 seconds =       0.02 minutes
Total time:
	user time   =       0.42 seconds =       0.01 minutes
	system time =       0.02 seconds =       0.00 minutes
	total time  =          1 seconds =       0.02 minutes
Reading options from the SCF block
Calling plugin scf.so.
    Molecular point group: c1
    Full point group: D_inf_h

    Geometry (in Angstrom), charge = 0, multiplicity = 1:

       Center              X                  Y                   Z       
    ------------   -----------------  -----------------  -----------------
           H          0.000000000000     0.000000000000    -1.100000000000
           H          0.000000000000     0.000000000000     1.100000000000


    Nuclear repulsion energy:       0.24053509

  ## Overlap (Symmetry 0) ##
  Irrep: 1 Size: 10 x 10

                 1                   2                   3                   4                   5

    1     1.00000000000000     0.68486025149275     0.00000000000000     0.00000000000000     0.00000000000000
    2     0.68486025149275     1.00000000000000     0.00000000000000     0.00000000000000     0.00000000000000
    3     0.00000000000000     0.00000000000000     1.00000000000000     0.00000000000000     0.00000000000000
    4     0.00000000000000     0.00000000000000     0.00000000000000     1.00000000000000     0.00000000000000
    5     0.00000000000000     0.00000000000000     0.00000000000000     0.00000000000000     1.00000000000000
    6     0.01470279305541     0.12666746055273     0.01788531039862     0.00000000000000     0.00000000000000
    7     0.12666746055273     0.34842886457874     0.09840072086103     0.00000000000000     0.00000000000000
    8    -0.01788531039862    -0.09840072086103    -0.02160789803170     0.00000000000000     0.00000000000000
    9     0.00000000000000     0.00000000000000     0.00000000000000     0.00186831701363     0.00000000000000
   10     0.00000000000000     0.00000000000000     0.00000000000000     0.00000000000000     0.00186831701363

                 6                   7                   8                   9                  10

    1     0.01470279305541     0.12666746055273    -0.01788531039862     0.00000000000000     0.00000000000000
    2     0.12666746055273     0.34842886457874    -0.09840072086103     0.00000000000000     0.00000000000000
    3     0.01788531039862     0.09840072086103    -0.02160789803170     0.00000000000000     0.00000000000000
    4     0.00000000000000     0.00000000000000     0.00000000000000     0.00186831701363     0.00000000000000
    5     0.00000000000000     0.00000000000000     0.00000000000000     0.00000000000000     0.00186831701363
    6     1.00000000000000     0.68486025149275    -0.00000000000000     0.00000000000000     0.00000000000000
    7     0.68486025149275     1.00000000000000     0.00000000000000     0.00000000000000     0.00000000000000
    8    -0.00000000000000     0.00000000000000     1.00000000000000     0.00000000000000     0.00000000000000
    9     0.00000000000000     0.00000000000000     0.00000000000000     1.00000000000000     0.00000000000000
   10     0.00000000000000     0.00000000000000     0.00000000000000     0.00000000000000     1.00000000000000



  ## Kinetic (Symmetry 0) ##
  Irrep: 1 Size: 10 x 10

                 1                   2                   3                   4                   5

    1     0.96945722711242     0.20123413106538    -0.00000000000000     0.00000000000000     0.00000000000000
    2     0.20123413106538     0.18300000000000     0.00000000000000     0.00000000000000     0.00000000000000
    3    -0.00000000000000     0.00000000000000     1.81750000000000     0.00000000000000     0.00000000000000
    4     0.00000000000000     0.00000000000000     0.00000000000000     1.81750000000000     0.00000000000000
    5     0.00000000000000     0.00000000000000     0.00000000000000     0.00000000000000     1.81750000000000
    6    -0.01653804188010    -0.00463827541988    -0.02300804517927     0.00000000000000     0.00000000000000
    7    -0.00463827541988     0.01894505819662     0.01427589891732     0.00000000000000     0.00000000000000
    8     0.02300804517927    -0.01427589891732     0.04235527698746     0.00000000000000     0.00000000000000
    9     0.00000000000000     0.00000000000000     0.00000000000000    -0.00513793799670     0.00000000000000
   10     0.00000000000000     0.00000000000000     0.00000000000000     0.00000000000000    -0.00513793799670

                 6                   7                   8                   9                  10

    1    -0.01653804188010    -0.00463827541988     0.02300804517927     0.00000000000000     0.00000000000000
    2    -0.00463827541988     0.01894505819662    -0.01427589891732     0.00000000000000     0.00000000000000
    3    -0.02300804517927     0.01427589891732     0.04235527698746     0.00000000000000     0.00000000000000
    4     0.00000000000000     0.00000000000000     0.00000000000000    -0.00513793799670     0.00000000000000
    5     0.00000000000000     0.00000000000000     0.00000000000000     0.00000000000000    -0.00513793799670
    6     0.96945722711242     0.20123413106538     0.00000000000000     0.00000000000000     0.00000000000000
    7     0.20123413106538     0.18300000000000     0.00000000000000     0.00000000000000     0.00000000000000
    8     0.00000000000000     0.00000000000000     1.81750000000000     0.00000000000000     0.00000000000000
    9     0.00000000000000     0.00000000000000     0.00000000000000     1.81750000000000     0.00000000000000
   10     0.00000000000000     0.00000000000000     0.00000000000000     0.00000000000000     1.81750000000000



  ## Potential (Symmetry 0) ##
  Irrep: 1 Size: 10 x 10

                 1                   2                   3                   4                   5

    1    -1.61839687479924    -0.81443872834181    -0.03639936053385     0.00000000000000     0.00000000000000
    2    -0.81443872834181    -0.79702774717251    -0.03414441947120     0.00000000000000     0.00000000000000
    3    -0.03639936053385    -0.03414441947120    -1.15718725592913     0.00000000000000     0.00000000000000
    4     0.00000000000000     0.00000000000000     0.00000000000000    -1.14283030543909     0.00000000000000
    5     0.00000000000000     0.00000000000000     0.00000000000000     0.00000000000000    -1.14283030543909
    6    -0.01434750319837    -0.14130801572713    -0.01713858166925     0.00000000000000     0.00000000000000
    7    -0.14130801572713    -0.28613551097546    -0.09961970288747     0.00000000000000     0.00000000000000
    8     0.01713858166925     0.09961970288747     0.02050666943843     0.00000000000000     0.00000000000000
    9     0.00000000000000     0.00000000000000     0.00000000000000    -0.00165463125871     0.00000000000000
   10     0.00000000000000     0.00000000000000     0.00000000000000     0.00000000000000    -0.00165463125871

                 6                   7                   8                   9                  10

    1    -0.01434750319837    -0.14130801572713     0.01713858166925     0.00000000000000     0.00000000000000
    2    -0.14130801572713    -0.28613551097546     0.09961970288747     0.00000000000000     0.00000000000000
    3    -0.01713858166925    -0.09961970288747     0.02050666943843     0.00000000000000     0.00000000000000
    4     0.00000000000000     0.00000000000000     0.00000000000000    -0.00165463125871     0.00000000000000
    5     0.00000000000000     0.00000000000000     0.00000000000000     0.00000000000000    -0.00165463125871
    6    -1.61839687479924    -0.81443872834181     0.03639936053385     0.00000000000000     0.00000000000000
    7    -0.81443872834181    -0.79702774717251     0.03414441947120     0.00000000000000     0.00000000000000
    8     0.03639936053385     0.03414441947120    -1.15718725592913     0.00000000000000     0.00000000000000
    9     0.00000000000000     0.00000000000000     0.00000000000000    -1.14283030543909     0.00000000000000
   10     0.00000000000000     0.00000000000000     0.00000000000000     0.00000000000000    -1.14283030543909



  ## One Electron Ints (Symmetry 0) ##
  Irrep: 1 Size: 10 x 10

                 1                   2                   3                   4                   5

    1    -0.64893964768682    -0.61320459727643    -0.03639936053385     0.00000000000000     0.00000000000000
    2    -0.61320459727643    -0.61402774717251    -0.03414441947120     0.00000000000000     0.00000000000000
    3    -0.03639936053385    -0.03414441947120     0.66031274407087     0.00000000000000     0.00000000000000
    4     0.00000000000000     0.00000000000000     0.00000000000000     0.67466969456091     0.00000000000000
    5     0.00000000000000     0.00000000000000     0.00000000000000     0.00000000000000     0.67466969456091
    6    -0.03088554507847    -0.14594629114701    -0.04014662684852     0.00000000000000     0.00000000000000
    7    -0.14594629114701    -0.26719045277885    -0.08534380397015     0.00000000000000     0.00000000000000
    8     0.04014662684852     0.08534380397015     0.06286194642589     0.00000000000000     0.00000000000000
    9     0.00000000000000     0.00000000000000     0.00000000000000    -0.00679256925541     0.00000000000000
   10     0.00000000000000     0.00000000000000     0.00000000000000     0.00000000000000    -0.00679256925541

                 6                   7                   8                   9                  10

    1    -0.03088554507847    -0.14594629114701     0.04014662684852     0.00000000000000     0.00000000000000
    2    -0.14594629114701    -0.26719045277885     0.08534380397015     0.00000000000000     0.00000000000000
    3    -0.04014662684852    -0.08534380397015     0.06286194642589     0.00000000000000     0.00000000000000
    4     0.00000000000000     0.00000000000000     0.00000000000000    -0.00679256925541     0.00000000000000
    5     0.00000000000000     0.00000000000000     0.00000000000000     0.00000000000000    -0.00679256925541
    6    -0.64893964768682    -0.61320459727643     0.03639936053385     0.00000000000000     0.00000000000000
    7    -0.61320459727643    -0.61402774717251     0.03414441947120     0.00000000000000     0.00000000000000
    8     0.03639936053385     0.03414441947120     0.66031274407087     0.00000000000000     0.00000000000000
    9     0.00000000000000     0.00000000000000     0.00000000000000     0.67466969456091     0.00000000000000
   10     0.00000000000000     0.00000000000000     0.00000000000000     0.00000000000000     0.67466969456091




	There are 0 unique integrals

  ## Fock (Symmetry 0) ##
  Irrep: 1 Size: 10 x 10

                 1                   2                   3                   4                   5

    1    -0.41288478271968    -0.35941491724036    -0.04103848125408    -0.00000000000000     0.00000000000000
    2    -0.35941491724036    -0.31634801046531     0.01750499119695     0.00000000000000     0.00000000000000
    3    -0.04103848125408     0.01750499119695     0.67776195270641    -0.00000000000000     0.00000000000000
    4    -0.00000000000000     0.00000000000000    -0.00000000000000     0.67468474029388     0.00000000000000
    5     0.00000000000000     0.00000000000000     0.00000000000000     0.00000000000000     0.67468474029388
    6     0.01428072712569    -0.00803730009716     0.03045391015458    -0.00000000000000     0.00000000000000
    7    -0.00803730009716    -0.09247402388339    -0.12285450596311     0.00000000000000     0.00000000000000
    8    -0.03045391015458     0.12285450596311     0.08101015219404    -0.00000000000000     0.00000000000000
    9    -0.00000000000000     0.00000000000000     0.00000000000000    -0.00805309423454     0.00000000000000
   10     0.00000000000000     0.00000000000000     0.00000000000000     0.00000000000000    -0.00805309423454

                 6                   7                   8                   9                  10

    1     0.01428072712569    -0.00803730009716    -0.03045391015458    -0.00000000000000     0.00000000000000
    2    -0.00803730009716    -0.09247402388339     0.12285450596311     0.00000000000000     0.00000000000000
    3     0.03045391015458    -0.12285450596311     0.08101015219404     0.00000000000000     0.00000000000000
    4    -0.00000000000000     0.00000000000000    -0.00000000000000    -0.00805309423454     0.00000000000000
    5     0.00000000000000     0.00000000000000     0.00000000000000     0.00000000000000    -0.00805309423454
    6    -0.41288478271968    -0.35941491724036     0.04103848125408     0.00000000000000     0.00000000000000
    7    -0.35941491724036    -0.31634801046531    -0.01750499119695    -0.00000000000000     0.00000000000000
    8     0.04103848125408    -0.01750499119695     0.67776195270641     0.00000000000000     0.00000000000000
    9     0.00000000000000    -0.00000000000000     0.00000000000000     0.67468474029388     0.00000000000000
   10     0.00000000000000     0.00000000000000     0.00000000000000     0.00000000000000     0.67468474029388



  ## C (Symmetry 0) ##
  Irrep: 1 Size: 10 x 10

                 1                   2                   3                   4                   5

    1    -0.93909987767023    -0.87612835660081    -0.04712569358629    -0.03813583499745     0.01615257151195
    2     1.04752885097287     0.84519934748447     0.00258282430023     0.19187996993331    -0.09022410981505
    3     0.52479235048373    -0.47832142768954    -0.07243882432737     0.05208827481760    -0.02957802922769
    4    -0.42054269758872     0.55019094641089    -0.14295128881774     0.00066055125595     0.00000000000000
    5    -0.02212605912545     0.08078933863744    -0.70149732334865    -0.00000000000000     0.00000000000000
    6     0.04204104263039     0.00565270109312    -0.00309463200215     0.37831140480926    -0.91472418728584
    7    -0.21677480568129    -0.10719115107033     0.00668715099477    -0.96970250467545     0.39398288099183
    8     0.06229166728487     0.03996805029827    -0.00067462941050     0.01567147618257    -0.71527443337604
    9     0.00039285388126    -0.00051396600148     0.00013353927904    -0.70710770677624    -0.00000000000000
   10     0.07581419916477    -0.12203552147350    -0.69171852158151     0.00000000000000     0.00000000000000

                 6                   7                   8                   9                  10

    1    -0.33626600334198    -0.41911756466963     0.06163541639055    -0.03813583499745    -0.02502551095089
    2    -0.49767837885948    -0.32622848674327    -0.03977471004984     0.19187996993330     0.01395243982015
    3     0.49982007477783    -0.49725301063914     0.07183776188925     0.05208827481760    -0.01160005323516
    4     0.42054269758872    -0.55019094641089    -0.14295128881774    -0.00066055125595     0.00000000000000
    5    -0.02198445253687     0.08056147820082     0.70279089941617     0.00000000000000     0.00000000000000
    6    -0.01872787120621    -0.04041645762529     0.00163197349466     0.37831140480926    -0.90625835953376
    7     0.08898321326927     0.12460523650927     0.00067219672785    -0.96970250467544     0.36263992862669
    8    -0.02071026212088    -0.02295604721003    -0.00132315976357     0.01567147618257     0.70680860562396
    9    -0.00039285388126     0.00051396600148     0.00013353927904     0.70710770677625    -0.00000000000000
   10    -0.07577299291910     0.12188479410384    -0.69303035051560    -0.00000000000000     0.00000000000000




 In Bisection function HOMO = -0.776  LUMO =  0.791

 0.00757 = (-0.77617 + 0.79132)/2.0
 sum -  nocc_ = 2.11029758
 On Iteration in Bisection 0
 a: 2.11030  b:-0.50000

 -0.38430 = (-0.77617 + 0.00757)/2.0
 sum -  nocc_ = 1.00000000
 On Iteration in Bisection 1
 a: 1.00000  b:-0.50000

 -0.58024 = (-0.77617 + -0.38430)/2.0
 sum -  nocc_ = 1.00000000
 On Iteration in Bisection 2
 a: 1.00000  b:-0.50000

 -0.67820 = (-0.77617 + -0.58024)/2.0
 sum -  nocc_ = 1.00000000
 On Iteration in Bisection 3
 a: 1.00000  b:-0.50000

 -0.72719 = (-0.77617 + -0.67820)/2.0
 sum -  nocc_ = 0.00000000
 ef = -0.72719 sum = 1.00000 

 Iter: 0  T:      100.000  val:-0.727189  sumni 0.00000
 ne = 1.0000

Nuc Replusion =       0.240535094814
 1st iteration =       0.653657599600
 In Bisection function HOMO = -0.286  LUMO =  1.838

 0.77585 = (-0.28581 + 1.83752)/2.0
 sum -  nocc_ = 3.00000000
 On Iteration in Bisection 0
 a: 3.00000  b:-0.50000

 0.24502 = (-0.28581 + 0.77585)/2.0
 sum -  nocc_ = 1.00000000
 On Iteration in Bisection 1
 a: 1.00000  b:-0.50000

 -0.02040 = (-0.28581 + 0.24502)/2.0
 sum -  nocc_ = 0.00000000
 ef = -0.02040 sum = 1.00000 

 Iter: 0  T:      100.000  val:-0.020397  sumni 0.00000
 ne = 1.0000

 iter:1  failiter:1  energy:     -1.022999710612  total:     -0.782464615798  error:     -0.126253354169
 In Bisection function HOMO = -0.291  LUMO =  1.888

 0.79808 = (-0.29150 + 1.88765)/2.0
 sum -  nocc_ = 2.00000000
 On Iteration in Bisection 0
 a: 2.00000  b:-0.50000

 0.25329 = (-0.29150 + 0.79808)/2.0
 sum -  nocc_ = 1.00000000
 On Iteration in Bisection 1
 a: 1.00000  b:-0.50000

 -0.01910 = (-0.29150 + 0.25329)/2.0
 sum -  nocc_ = 1.00000000
 On Iteration in Bisection 2
 a: 1.00000  b:-0.50000

 -0.15530 = (-0.29150 + -0.01910)/2.0
 sum -  nocc_ = 0.00000000
 ef = -0.15530 sum = 1.00000 

 Iter: 1  T:      100.000  val:-0.155300  sumni 0.00000
 ne = 1.0000

 iter:2  failiter:2  energy:     -1.048993593926  total:     -0.808458499113  error:     -0.025993883315
 In Bisection function HOMO = -0.331  LUMO =  1.804

 0.73637 = (-0.33123 + 1.80398)/2.0
 sum -  nocc_ = 2.00000000
 On Iteration in Bisection 0
 a: 2.00000  b:-0.50000

 0.20257 = (-0.33123 + 0.73637)/2.0
 sum -  nocc_ = 1.00000000
 On Iteration in Bisection 1
 a: 1.00000  b:-0.50000

 -0.06433 = (-0.33123 + 0.20257)/2.0
 sum -  nocc_ = 1.00000000
 On Iteration in Bisection 2
 a: 1.00000  b:-0.50000

 -0.19778 = (-0.33123 + -0.06433)/2.0
 sum -  nocc_ = 0.00000000
 ef = -0.19778 sum = 1.00000 

 Iter: 2  T:      100.000  val:-0.197776  sumni 0.00000
 ne = 1.0000

 iter:3  failiter:3  energy:     -1.098222470177  total:     -0.857687375363  error:     -0.049228876251
 In Bisection function HOMO = -0.358  LUMO =  1.683

 0.66268 = (-0.35802 + 1.68338)/2.0
 sum -  nocc_ = 2.00000000
 On Iteration in Bisection 0
 a: 2.00000  b:-0.50000

 0.15233 = (-0.35802 + 0.66268)/2.0
 sum -  nocc_ = 1.00000000
 On Iteration in Bisection 1
 a: 1.00000  b:-0.50000

 -0.10284 = (-0.35802 + 0.15233)/2.0
 sum -  nocc_ = 0.00000000
 ef = -0.10284 sum = 1.00000 

 Iter: 3  T:      100.000  val:-0.102843  sumni 0.00000
 ne = 1.0000

 iter:4  failiter:4  energy:     -1.126137224244  total:     -0.885602129431  error:     -0.027914754067
 In Bisection function HOMO = -0.367  LUMO =  1.625

 0.62889 = (-0.36712 + 1.62491)/2.0
 sum -  nocc_ = 2.00000000
 On Iteration in Bisection 0
 a: 2.00000  b:-0.50000

 0.13088 = (-0.36712 + 0.62889)/2.0
 sum -  nocc_ = 1.00000000
 On Iteration in Bisection 1
 a: 1.00000  b:-0.50000

 -0.11812 = (-0.36712 + 0.13088)/2.0
 sum -  nocc_ = 0.00000000
 ef = -0.11812 sum = 1.00000 

 Iter: 4  T:      100.000  val:-0.118121  sumni 0.00000
 ne = 1.0000

 iter:5  failiter:5  energy:     -1.134999754684  total:     -0.894464659870  error:     -0.008862530440
 In Bisection function HOMO = -0.369  LUMO =  1.611

 0.62106 = (-0.36912 + 1.61125)/2.0
 sum -  nocc_ = 1.00000000
 On Iteration in Bisection 0
 a: 1.00000  b:-0.50000

 0.12597 = (-0.36912 + 0.62106)/2.0
 sum -  nocc_ = 1.00000000
 On Iteration in Bisection 1
 a: 1.00000  b:-0.50000

 -0.12158 = (-0.36912 + 0.12597)/2.0
 sum -  nocc_ = 0.00000000
 ef = -0.12158 sum = 1.00000 

 Iter: 5  T:      100.000  val:-0.121575  sumni 0.00000
 ne = 1.0000

 iter:6  failiter:6  energy:     -1.136859000728  total:     -0.896323905914  error:     -0.001859246044
 In Bisection function HOMO = -0.370  LUMO =  1.609

 0.61973 = (-0.36951 + 1.60897)/2.0
 sum -  nocc_ = 1.00000000
 On Iteration in Bisection 0
 a: 1.00000  b:-0.50000

 0.12511 = (-0.36951 + 0.61973)/2.0
 sum -  nocc_ = 1.00000000
 On Iteration in Bisection 1
 a: 1.00000  b:-0.50000

 -0.12220 = (-0.36951 + 0.12511)/2.0
 sum -  nocc_ = 0.00000000
 ef = -0.12220 sum = 1.00000 

 Iter: 6  T:      100.000  val:-0.122196  sumni 0.00000
 ne = 1.0000

 iter:7  failiter:7  energy:     -1.137203788486  total:     -0.896668693672  error:     -0.000344787758
 In Bisection function HOMO = -0.370  LUMO =  1.609

 0.61952 = (-0.36958 + 1.60861)/2.0
 sum -  nocc_ = 1.00000000
 On Iteration in Bisection 0
 a: 1.00000  b:-0.50000

 0.12497 = (-0.36958 + 0.61952)/2.0
 sum -  nocc_ = 1.00000000
 On Iteration in Bisection 1
 a: 1.00000  b:-0.50000

 -0.12230 = (-0.36958 + 0.12497)/2.0
 sum -  nocc_ = 0.00000000
 ef = -0.12230 sum = 1.00000 

 Iter: 7  T:      100.000  val:-0.122305  sumni 0.00000
 ne = 1.0000

 iter:8  failiter:8  energy:     -1.137267010181  total:     -0.896731915368  error:     -0.000063221695
 In Bisection function HOMO = -0.370  LUMO =  1.609

 0.61948 = (-0.36959 + 1.60855)/2.0
 sum -  nocc_ = 1.00000000
 On Iteration in Bisection 0
 a: 1.00000  b:-0.50000

 0.12494 = (-0.36959 + 0.61948)/2.0
 sum -  nocc_ = 1.00000000
 On Iteration in Bisection 1
 a: 1.00000  b:-0.50000

 -0.12232 = (-0.36959 + 0.12494)/2.0
 sum -  nocc_ = 0.00000000
 ef = -0.12232 sum = 1.00000 

 Iter: 8  T:      100.000  val:-0.122324  sumni 0.00000
 ne = 1.0000

 iter:9  failiter:9  energy:     -1.137278747455  total:     -0.896743652641  error:     -0.000011737273
 In Bisection function HOMO = -0.370  LUMO =  1.609

 0.61947 = (-0.36959 + 1.60854)/2.0
 sum -  nocc_ = 1.00000000
 On Iteration in Bisection 0
 a: 1.00000  b:-0.50000

 0.12494 = (-0.36959 + 0.61947)/2.0
 sum -  nocc_ = 1.00000000
 On Iteration in Bisection 1
 a: 1.00000  b:-0.50000

 -0.12233 = (-0.36959 + 0.12494)/2.0
 sum -  nocc_ = 0.00000000
 ef = -0.12233 sum = 1.00000 

 Iter: 9  T:      100.000  val:-0.122327  sumni 0.00000
 ne = 1.0000

 iter:10  failiter:10  energy:     -1.137280943221  total:     -0.896745848408  error:     -0.000002195766
 In Bisection function HOMO = -0.370  LUMO =  1.609

 0.61947 = (-0.36959 + 1.60854)/2.0
 sum -  nocc_ = 1.00000000
 On Iteration in Bisection 0
 a: 1.00000  b:-0.50000

 0.12494 = (-0.36959 + 0.61947)/2.0
 sum -  nocc_ = 1.00000000
 On Iteration in Bisection 1
 a: 1.00000  b:-0.50000

 -0.12233 = (-0.36959 + 0.12494)/2.0
 sum -  nocc_ = 0.00000000
 ef = -0.12233 sum = 1.00000 

 Iter: 10  T:      100.000  val:-0.122328  sumni 0.00000
 ne = 1.0000

 iter:11  failiter:11  energy:     -1.137281355726  total:     -0.896746260912  error:     -0.000000412505
 In Bisection function HOMO = -0.370  LUMO =  1.609

 0.61947 = (-0.36960 + 1.60854)/2.0
 sum -  nocc_ = 1.00000000
 On Iteration in Bisection 0
 a: 1.00000  b:-0.50000

 0.12494 = (-0.36960 + 0.61947)/2.0
 sum -  nocc_ = 1.00000000
 On Iteration in Bisection 1
 a: 1.00000  b:-0.50000

 -0.12233 = (-0.36960 + 0.12494)/2.0
 sum -  nocc_ = 0.00000000
 ef = -0.12233 sum = 1.00000 

 Iter: 11  T:      100.000  val:-0.122328  sumni 0.00000
 ne = 1.0000

 iter:12  failiter:12  energy:     -1.137281433300  total:     -0.896746338486  error:     -0.000000077574
 In Bisection function HOMO = -0.370  LUMO =  1.609

 0.61947 = (-0.36960 + 1.60854)/2.0
 sum -  nocc_ = 1.00000000
 On Iteration in Bisection 0
 a: 1.00000  b:-0.50000

 0.12494 = (-0.36960 + 0.61947)/2.0
 sum -  nocc_ = 1.00000000
 On Iteration in Bisection 1
 a: 1.00000  b:-0.50000

 -0.12233 = (-0.36960 + 0.12494)/2.0
 sum -  nocc_ = 0.00000000
 ef = -0.12233 sum = 1.00000 

 Iter: 12  T:      100.000  val:-0.122328  sumni 0.00000
 ne = 1.0000

 iter:13  failiter:13  energy:     -1.137281447885  total:     -0.896746353071  error:     -0.000000014585
 In Bisection function HOMO = -0.370  LUMO =  1.609

 0.61947 = (-0.36960 + 1.60854)/2.0
 sum -  nocc_ = 1.00000000
 On Iteration in Bisection 0
 a: 1.00000  b:-0.50000

 0.12494 = (-0.36960 + 0.61947)/2.0
 sum -  nocc_ = 1.00000000
 On Iteration in Bisection 1
 a: 1.00000  b:-0.50000

 -0.12233 = (-0.36960 + 0.12494)/2.0
 sum -  nocc_ = 0.00000000
 ef = -0.12233 sum = 1.00000 

 Iter: 13  T:      100.000  val:-0.122328  sumni 0.00000
 ne = 1.0000

 iter:14  failiter:14  energy:     -1.137281450624  total:     -0.896746355810  error:     -0.000000002739
 In Bisection function HOMO = -0.370  LUMO =  1.609

 0.61947 = (-0.36960 + 1.60854)/2.0
 sum -  nocc_ = 1.00000000
 On Iteration in Bisection 0
 a: 1.00000  b:-0.50000

 0.12494 = (-0.36960 + 0.61947)/2.0
 sum -  nocc_ = 1.00000000
 On Iteration in Bisection 1
 a: 1.00000  b:-0.50000

 -0.12233 = (-0.36960 + 0.12494)/2.0
 sum -  nocc_ = 0.00000000
 ef = -0.12233 sum = 1.00000 

 Iter: 14  T:      100.000  val:-0.122328  sumni 0.00000
 ne = 1.0000

 iter:15  failiter:15  energy:     -1.137281451138  total:     -0.896746356324  error:     -0.000000000514
 In Bisection function HOMO = -0.370  LUMO =  1.609

 0.61947 = (-0.36960 + 1.60854)/2.0
 sum -  nocc_ = 1.00000000
 On Iteration in Bisection 0
 a: 1.00000  b:-0.50000

 0.12494 = (-0.36960 + 0.61947)/2.0
 sum -  nocc_ = 1.00000000
 On Iteration in Bisection 1
 a: 1.00000  b:-0.50000

 -0.12233 = (-0.36960 + 0.12494)/2.0
 sum -  nocc_ = 0.00000000
 ef = -0.12233 sum = 1.00000 

 Iter: 15  T:      100.000  val:-0.122328  sumni 0.00000
 ne = 1.0000

 iter:16  failiter:16  energy:     -1.137281451234  total:     -0.896746356421  error:     -0.000000000096
 In Bisection function HOMO = -0.370  LUMO =  1.609

 0.61947 = (-0.36960 + 1.60854)/2.0
 sum -  nocc_ = 1.00000000
 On Iteration in Bisection 0
 a: 1.00000  b:-0.50000

 0.12494 = (-0.36960 + 0.61947)/2.0
 sum -  nocc_ = 1.00000000
 On Iteration in Bisection 1
 a: 1.00000  b:-0.50000

 -0.12233 = (-0.36960 + 0.12494)/2.0
 sum -  nocc_ = 0.00000000
 ef = -0.12233 sum = 1.00000 

 Iter: 16  T:      100.000  val:-0.122328  sumni 0.00000
 ne = 1.0000

 iter:17  failiter:17  energy:     -1.137281451252  total:     -0.896746356439  error:     -0.000000000018
 In Bisection function HOMO = -0.370  LUMO =  1.609

 0.61947 = (-0.36960 + 1.60854)/2.0
 sum -  nocc_ = 1.00000000
 On Iteration in Bisection 0
 a: 1.00000  b:-0.50000

 0.12494 = (-0.36960 + 0.61947)/2.0
 sum -  nocc_ = 1.00000000
 On Iteration in Bisection 1
 a: 1.00000  b:-0.50000

 -0.12233 = (-0.36960 + 0.12494)/2.0
 sum -  nocc_ = 0.00000000
 ef = -0.12233 sum = 1.00000 

 Iter: 17  T:      100.000  val:-0.122328  sumni 0.00000
 ne = 1.0000

 iter:18  failiter:18  energy:     -1.137281451256  total:     -0.896746356442  error:     -0.000000000003
 In Bisection function HOMO = -0.370  LUMO =  1.609

 0.61947 = (-0.36960 + 1.60854)/2.0
 sum -  nocc_ = 1.00000000
 On Iteration in Bisection 0
 a: 1.00000  b:-0.50000

 0.12494 = (-0.36960 + 0.61947)/2.0
 sum -  nocc_ = 1.00000000
 On Iteration in Bisection 1
 a: 1.00000  b:-0.50000

 -0.12233 = (-0.36960 + 0.12494)/2.0
 sum -  nocc_ = 0.00000000
 ef = -0.12233 sum = 1.00000 

 Iter: 18  T:      100.000  val:-0.122328  sumni 0.00000
 ne = 1.0000

 iter:19  failiter:19  energy:     -1.137281451256  total:     -0.896746356443  error:     -0.000000000001
 FTHFEnergy =    -0.896746
 FD_dis[0] = 1.00000000 with -0.369595 eig value
 FD_dis[1] = 0.00000000 with -0.058084 eig value
 FD_dis[2] = 0.00000000 with 0.653160 eig value
 FD_dis[3] = 0.00000000 with 0.657028 eig value
 FD_dis[4] = 0.00000000 with 1.404699 eig value
 FD_dis[5] = 0.00000000 with 1.461011 eig value
 FD_dis[6] = 0.00000000 with 1.461011 eig value
 FD_dis[7] = 0.00000000 with 1.483636 eig value
 FD_dis[8] = 0.00000000 with 1.483636 eig value
 FD_dis[9] = 0.00000000 with 1.608539 eig value
*** PSI4 exiting successfully. Buy a developer a beer!
