    -----------------------------------------------------------------------
          PSI4: An Open-Source Ab Initio Electronic Structure Package
                              PSI 4.0 Driver

               Git: Rev {master} 556e8139d3cfa1f96ccffe2cdf22cc56a185d2b2

    J. M. Turney, A. C. Simmonett, R. M. Parrish, E. G. Hohenstein,
    F. A. Evangelista, J. T. Fermann, B. J. Mintz, L. A. Burns, J. J. Wilke,
    M. L. Abrams, N. J. Russ, M. L. Leininger, C. L. Janssen, E. T. Seidl,
    W. D. Allen, H. F. Schaefer, R. A. King, E. F. Valeev, C. D. Sherrill,
    and T. D. Crawford, WIREs Comput. Mol. Sci. 2, 556-565 (2012)
    (doi: 10.1002/wcms.93)

                         Additional Contributions by
    A. E. DePrince, M. Saitow, U. Bozkaya, A. Yu. Sokolov
    -----------------------------------------------------------------------

    Process ID:  14560
    PSI4DATADIR: /Users/kevinhannon/Programs/psi4cmake/psi4/lib
    Memory level set to 256.000 MB

  ==> Input File <==

--------------------------------------------------------------------------

# PYTHONPATH must include directory above plugin directory.
#     Define either externally or here, then import plugin.
sys.path.insert(0, '/Users/kevinhannon/Programs/Quantum_Programs/Quantum-Programs/GS/')
import scf

molecule {
0 1
H
H 1 0.90000
symmetry c1
units angstrom
}


set {
  basis cc-pvdz
  reference rhf
  scf_type  pk
}

set scf {
  DO_FTHF true
  MAX_ITER 130
  MAX_TEMP 20000
  TEMP_INCREMENT 0
  bisect  true
  bisect_iter  40
}
energy('rhf')
energy('scf')


--------------------------------------------------------------------------

*** tstart() called on Kevins-MacBook-Pro.local
*** at Sun Apr 12 15:45:56 2015

/Users/kevinhannon/Programs/Quantum_Programs/Quantum-Programs/GS/scf/scf.so loaded.

*** tstart() called on Kevins-MacBook-Pro.local
*** at Sun Apr 12 15:45:56 2015


         ---------------------------------------------------------
                                   SCF
            by Justin Turney, Rob Parrish, and Andy Simmonett
                              RHF Reference
                        1 Threads,    256 MiB Core
         ---------------------------------------------------------

  ==> Geometry <==

    Molecular point group: c1
    Full point group: D_inf_h

    Geometry (in Angstrom), charge = 0, multiplicity = 1:

       Center              X                  Y                   Z       
    ------------   -----------------  -----------------  -----------------
           H          0.000000000000     0.000000000000    -0.450000000000
           H          0.000000000000     0.000000000000     0.450000000000

  Running in c1 symmetry.

  Rotational constants: A = ************  B =     41.30060  C =     41.30060 [cm^-1]
  Rotational constants: A = ************  B = 1238160.74749  C = 1238160.74749 [MHz]
  Nuclear repulsion =    0.587974676211111

  Charge       = 0
  Multiplicity = 1
  Electrons    = 2
  Nalpha       = 1
  Nbeta        = 1

  ==> Algorithm <==

  SCF Algorithm Type is PK.
  DIIS enabled.
  MOM disabled.
  Fractional occupation disabled.
  Guess Type is CORE.
  Energy threshold   = 1.00e-06
  Density threshold  = 1.00e-06
  Integral threshold = 0.00e+00

  ==> Primary Basis <==

  Basis Set: CC-PVDZ
    Number of shells: 6
    Number of basis function: 10
    Number of Cartesian functions: 10
    Spherical Harmonics?: true
    Max angular momentum: 1

  ==> Pre-Iterations <==

   -------------------------------------------------------
    Irrep   Nso     Nmo     Nalpha   Nbeta   Ndocc  Nsocc
   -------------------------------------------------------
     A         10      10       0       0       0       0
   -------------------------------------------------------
    Total      10      10       1       1       1       0
   -------------------------------------------------------

  Starting with a DF guess...

 OEINTS: Overlap, kinetic, potential, dipole, and quadrupole integrals
         stored in file 35.

  ==> Integral Setup <==

  ==> DFJK: Density-Fitted J/K Matrices <==

    J tasked:                  Yes
    K tasked:                  Yes
    wK tasked:                  No
    OpenMP threads:              1
    Integrals threads:           1
    Memory (MB):               183
    Algorithm:                Core
    Integral Cache:           NONE
    Schwarz Cutoff:          1E-12
    Fitting Condition:       1E-12

   => Auxiliary Basis Set <=

  Basis Set: 
    Number of shells: 18
    Number of basis function: 46
    Number of Cartesian functions: 50
    Spherical Harmonics?: true
    Max angular momentum: 2

  Minimum eigenvalue in the overlap matrix is 9.8206938735E-02.
  Using Symmetric Orthogonalization.
  SCF Guess: Core (One-Electron) Hamiltonian.

  ==> Iterations <==

                           Total Energy        Delta E     RMS |[F,P]|

   @DF-RHF iter   1:    -1.06426077945740   -1.06426e+00   2.18737e-02 
   @DF-RHF iter   2:    -1.11467444513458   -5.04137e-02   3.91783e-03 DIIS
   @DF-RHF iter   3:    -1.11638985971386   -1.71541e-03   1.91615e-04 DIIS
   @DF-RHF iter   4:    -1.11639201013793   -2.15042e-06   1.14647e-05 DIIS
   @DF-RHF iter   5:    -1.11639202516502   -1.50271e-08   1.98623e-08 DIIS

  DF guess converged.

  ==> Integral Setup <==

 MINTS: Wrapper to libmints.
   by Justin Turney

   Calculation information:
      Number of atoms:                   2
      Number of AO shells:               6
      Number of SO shells:               6
      Number of primitives:             10
      Number of atomic orbitals:        10
      Number of basis functions:        10

      Number of irreps:                  1
      Integral cutoff                 0.00e+00
      Number of functions per irrep: [  10 ]

 OEINTS: Overlap, kinetic, potential, dipole, and quadrupole integrals
         stored in file 35.

      Computing two-electron integrals...done
      Computed 512 non-zero two-electron integrals.
        Stored in file 33.

	Batch   1 pq = [       0,      55] index = [             0,1540]
  ==> DiskJK: Disk-Based J/K Matrices <==

    J tasked:                  Yes
    K tasked:                  Yes
    wK tasked:                  No
    Memory (MB):               183
    Schwarz Cutoff:          1E-12

   @RHF iter   6:    -1.11639129988591    7.25279e-07   1.98334e-07 DIIS

  ==> Post-Iterations <==

    Orbital Energies (a.u.)
    -----------------------

    Doubly Occupied:                                                      

       1A     -0.548523  

    Virtual:                                                              

       2A      0.165049     3A      0.517011     4A      0.840439  
       5A      1.283488     6A      1.283488     7A      1.789884  
       8A      1.935995     9A      1.935995    10A      2.949116  

    Final Occupation by Irrep:
              A 
    DOCC [     1 ]

  Energy converged.

  @RHF Final Energy:    -1.11639129988591

   => Energetics <=

    Nuclear Repulsion Energy =              0.5879746762111111
    One-Electron Energy =                  -2.3116858935316489
    Two-Electron Energy =                   0.6073199174346322
    DFT Exchange-Correlation Energy =       0.0000000000000000
    Empirical Dispersion Energy =           0.0000000000000000
    PCM Polarization Energy =               0.0000000000000000
    EFP Energy =                            0.0000000000000000
    Total Energy =                         -1.1163912998859056

    Alert: EFP and PCM quantities not currently incorporated into SCF psivars.

Properties will be evaluated at   0.000000,   0.000000,   0.000000 Bohr
  ==> Properties <==


Properties computed using the SCF density matrix

  Nuclear Dipole Moment: (a.u.)
     X:     0.0000      Y:     0.0000      Z:     0.0000

  Electronic Dipole Moment: (a.u.)
     X:     0.0000      Y:     0.0000      Z:     0.0000

  Dipole Moment: (a.u.)
     X:     0.0000      Y:     0.0000      Z:     0.0000     Total:     0.0000

  Dipole Moment: (Debye)
     X:     0.0000      Y:     0.0000      Z:     0.0000     Total:     0.0000


  Saving occupied orbitals to File 180.

*** tstop() called on Kevins-MacBook-Pro.local at Sun Apr 12 15:45:56 2015
Module time:
	user time   =       0.20 seconds =       0.00 minutes
	system time =       0.01 seconds =       0.00 minutes
	total time  =          0 seconds =       0.00 minutes
Total time:
	user time   =       0.21 seconds =       0.00 minutes
	system time =       0.02 seconds =       0.00 minutes
	total time  =          0 seconds =       0.00 minutes

*** tstart() called on Kevins-MacBook-Pro.local
*** at Sun Apr 12 15:45:56 2015


         ---------------------------------------------------------
                                   SCF
            by Justin Turney, Rob Parrish, and Andy Simmonett
                              RHF Reference
                        1 Threads,    256 MiB Core
         ---------------------------------------------------------

  ==> Geometry <==

    Molecular point group: c1
    Full point group: D_inf_h

    Geometry (in Angstrom), charge = 0, multiplicity = 1:

       Center              X                  Y                   Z       
    ------------   -----------------  -----------------  -----------------
           H          0.000000000000     0.000000000000    -0.450000000000
           H          0.000000000000     0.000000000000     0.450000000000

  Running in c1 symmetry.

  Rotational constants: A = ************  B =     41.30060  C =     41.30060 [cm^-1]
  Rotational constants: A = ************  B = 1238160.74749  C = 1238160.74749 [MHz]
  Nuclear repulsion =    0.587974676211111

  Charge       = 0
  Multiplicity = 1
  Electrons    = 2
  Nalpha       = 1
  Nbeta        = 1

  ==> Algorithm <==

  SCF Algorithm Type is PK.
  DIIS enabled.
  MOM disabled.
  Fractional occupation disabled.
  Guess Type is CORE.
  Energy threshold   = 1.00e-08
  Density threshold  = 1.00e-08
  Integral threshold = 0.00e+00

  ==> Primary Basis <==

  Basis Set: CC-PVDZ
    Number of shells: 6
    Number of basis function: 10
    Number of Cartesian functions: 10
    Spherical Harmonics?: true
    Max angular momentum: 1

  ==> Pre-Iterations <==

   -------------------------------------------------------
    Irrep   Nso     Nmo     Nalpha   Nbeta   Ndocc  Nsocc
   -------------------------------------------------------
     A         10      10       0       0       0       0
   -------------------------------------------------------
    Total      10      10       1       1       1       0
   -------------------------------------------------------

  Starting with a DF guess...

 OEINTS: Overlap, kinetic, potential, dipole, and quadrupole integrals
         stored in file 35.

  ==> Integral Setup <==

  ==> DFJK: Density-Fitted J/K Matrices <==

    J tasked:                  Yes
    K tasked:                  Yes
    wK tasked:                  No
    OpenMP threads:              1
    Integrals threads:           1
    Memory (MB):               183
    Algorithm:                Core
    Integral Cache:           NONE
    Schwarz Cutoff:          1E-12
    Fitting Condition:       1E-12

   => Auxiliary Basis Set <=

  Basis Set: 
    Number of shells: 18
    Number of basis function: 46
    Number of Cartesian functions: 50
    Spherical Harmonics?: true
    Max angular momentum: 2

  Minimum eigenvalue in the overlap matrix is 9.8206938735E-02.
  Using Symmetric Orthogonalization.
  SCF Guess: Core (One-Electron) Hamiltonian.

  ==> Iterations <==

                           Total Energy        Delta E     RMS |[F,P]|

   @DF-RHF iter   1:    -1.06426077945740   -1.06426e+00   2.18737e-02 
   @DF-RHF iter   2:    -1.11467444513458   -5.04137e-02   3.91783e-03 DIIS
   @DF-RHF iter   3:    -1.11638985971386   -1.71541e-03   1.91615e-04 DIIS
   @DF-RHF iter   4:    -1.11639201013793   -2.15042e-06   1.14647e-05 DIIS
   @DF-RHF iter   5:    -1.11639202516502   -1.50271e-08   1.98623e-08 DIIS
   @DF-RHF iter   6:    -1.11639202516507   -4.70735e-14   1.58630e-11 DIIS

  DF guess converged.

  ==> Integral Setup <==

 MINTS: Wrapper to libmints.
   by Justin Turney

   Calculation information:
      Number of atoms:                   2
      Number of AO shells:               6
      Number of SO shells:               6
      Number of primitives:             10
      Number of atomic orbitals:        10
      Number of basis functions:        10

      Number of irreps:                  1
      Integral cutoff                 0.00e+00
      Number of functions per irrep: [  10 ]

 OEINTS: Overlap, kinetic, potential, dipole, and quadrupole integrals
         stored in file 35.

      Computing two-electron integrals...done
      Computed 512 non-zero two-electron integrals.
        Stored in file 33.

	Batch   1 pq = [       0,      55] index = [             0,1540]
  ==> DiskJK: Disk-Based J/K Matrices <==

    J tasked:                  Yes
    K tasked:                  Yes
    wK tasked:                  No
    Memory (MB):               183
    Schwarz Cutoff:          1E-12

   @RHF iter   7:    -1.11639129988591    7.25279e-07   1.98329e-07 DIIS
   @RHF iter   8:    -1.11639129988802   -2.11253e-12   2.84287e-08 DIIS
   @RHF iter   9:    -1.11639129988806   -4.46310e-14   2.15106e-10 DIIS

  ==> Post-Iterations <==

    Orbital Energies (a.u.)
    -----------------------

    Doubly Occupied:                                                      

       1A     -0.548523  

    Virtual:                                                              

       2A      0.165049     3A      0.517011     4A      0.840439  
       5A      1.283488     6A      1.283488     7A      1.789883  
       8A      1.935995     9A      1.935995    10A      2.949116  

    Final Occupation by Irrep:
              A 
    DOCC [     1 ]

  Energy converged.

  @RHF Final Energy:    -1.11639129988806

   => Energetics <=

    Nuclear Repulsion Energy =              0.5879746762111111
    One-Electron Energy =                  -2.3116855117035162
    Two-Electron Energy =                   0.6073195356043406
    DFT Exchange-Correlation Energy =       0.0000000000000000
    Empirical Dispersion Energy =           0.0000000000000000
    PCM Polarization Energy =               0.0000000000000000
    EFP Energy =                            0.0000000000000000
    Total Energy =                         -1.1163912998880645

    Alert: EFP and PCM quantities not currently incorporated into SCF psivars.

Properties will be evaluated at   0.000000,   0.000000,   0.000000 Bohr
  ==> Properties <==


Properties computed using the SCF density matrix

  Nuclear Dipole Moment: (a.u.)
     X:     0.0000      Y:     0.0000      Z:     0.0000

  Electronic Dipole Moment: (a.u.)
     X:    -0.0000      Y:    -0.0000      Z:    -0.0000

  Dipole Moment: (a.u.)
     X:    -0.0000      Y:    -0.0000      Z:    -0.0000     Total:     0.0000

  Dipole Moment: (Debye)
     X:    -0.0000      Y:    -0.0000      Z:    -0.0000     Total:     0.0000


  Saving occupied orbitals to File 180.

*** tstop() called on Kevins-MacBook-Pro.local at Sun Apr 12 15:45:56 2015
Module time:
	user time   =       0.19 seconds =       0.00 minutes
	system time =       0.01 seconds =       0.00 minutes
	total time  =          0 seconds =       0.00 minutes
Total time:
	user time   =       0.41 seconds =       0.01 minutes
	system time =       0.03 seconds =       0.00 minutes
	total time  =          0 seconds =       0.00 minutes
Reading options from the SCF block
Calling plugin scf.so.
    Molecular point group: c1
    Full point group: D_inf_h

    Geometry (in Angstrom), charge = 0, multiplicity = 1:

       Center              X                  Y                   Z       
    ------------   -----------------  -----------------  -----------------
           H          0.000000000000     0.000000000000    -0.450000000000
           H          0.000000000000     0.000000000000     0.450000000000


    Nuclear repulsion energy:       0.58797468

  ## Overlap (Symmetry 0) ##
  Irrep: 1 Size: 10 x 10

                 1                   2                   3                   4                   5

    1     1.00000000000000     0.68486025149275     0.00000000000000     0.00000000000000     0.00000000000000
    2     0.68486025149275     1.00000000000000     0.00000000000000     0.00000000000000     0.00000000000000
    3     0.00000000000000     0.00000000000000     1.00000000000000     0.00000000000000     0.00000000000000
    4     0.00000000000000     0.00000000000000     0.00000000000000     1.00000000000000     0.00000000000000
    5     0.00000000000000     0.00000000000000     0.00000000000000     0.00000000000000     1.00000000000000
    6     0.44628790918087     0.51597698991084     0.47894101791603     0.00000000000000     0.00000000000000
    7     0.51597698991084     0.83824377940006     0.18103338309610     0.00000000000000     0.00000000000000
    8    -0.47894101791603    -0.18103338309610    -0.38538602378664     0.00000000000000     0.00000000000000
    9     0.00000000000000     0.00000000000000     0.00000000000000     0.34943193662641     0.00000000000000
   10     0.00000000000000     0.00000000000000     0.00000000000000     0.00000000000000     0.34943193662641

                 6                   7                   8                   9                  10

    1     0.44628790918087     0.51597698991084    -0.47894101791603     0.00000000000000     0.00000000000000
    2     0.51597698991084     0.83824377940006    -0.18103338309610     0.00000000000000     0.00000000000000
    3     0.47894101791603     0.18103338309610    -0.38538602378664     0.00000000000000     0.00000000000000
    4     0.00000000000000     0.00000000000000     0.00000000000000     0.34943193662641     0.00000000000000
    5     0.00000000000000     0.00000000000000     0.00000000000000     0.00000000000000     0.34943193662641
    6     1.00000000000000     0.68486025149275    -0.00000000000000     0.00000000000000     0.00000000000000
    7     0.68486025149275     1.00000000000000     0.00000000000000     0.00000000000000     0.00000000000000
    8    -0.00000000000000     0.00000000000000     1.00000000000000     0.00000000000000     0.00000000000000
    9     0.00000000000000     0.00000000000000     0.00000000000000     1.00000000000000     0.00000000000000
   10     0.00000000000000     0.00000000000000     0.00000000000000     0.00000000000000     1.00000000000000



  ## Kinetic (Symmetry 0) ##
  Irrep: 1 Size: 10 x 10

                 1                   2                   3                   4                   5

    1     0.96945722711242     0.20123413106538    -0.00000000000000     0.00000000000000     0.00000000000000
    2     0.20123413106538     0.18300000000000     0.00000000000000     0.00000000000000     0.00000000000000
    3    -0.00000000000000     0.00000000000000     1.81750000000000     0.00000000000000     0.00000000000000
    4     0.00000000000000     0.00000000000000     0.00000000000000     1.81750000000000     0.00000000000000
    5     0.00000000000000     0.00000000000000     0.00000000000000     0.00000000000000     1.81750000000000
    6     0.15412347632710     0.12276310056784     0.45652899643384     0.00000000000000     0.00000000000000
    7     0.12276310056784     0.13535419850563     0.08313173446953     0.00000000000000     0.00000000000000
    8    -0.45652899643384    -0.08313173446953    -0.94006206538258     0.00000000000000     0.00000000000000
    9     0.00000000000000     0.00000000000000     0.00000000000000     0.36798621620836     0.00000000000000
   10     0.00000000000000     0.00000000000000     0.00000000000000     0.00000000000000     0.36798621620836

                 6                   7                   8                   9                  10

    1     0.15412347632710     0.12276310056784    -0.45652899643384     0.00000000000000     0.00000000000000
    2     0.12276310056784     0.13535419850563    -0.08313173446953     0.00000000000000     0.00000000000000
    3     0.45652899643384     0.08313173446953    -0.94006206538258     0.00000000000000     0.00000000000000
    4     0.00000000000000     0.00000000000000     0.00000000000000     0.36798621620836     0.00000000000000
    5     0.00000000000000     0.00000000000000     0.00000000000000     0.00000000000000     0.36798621620836
    6     0.96945722711242     0.20123413106538     0.00000000000000     0.00000000000000     0.00000000000000
    7     0.20123413106538     0.18300000000000     0.00000000000000     0.00000000000000     0.00000000000000
    8     0.00000000000000     0.00000000000000     1.81750000000000     0.00000000000000     0.00000000000000
    9     0.00000000000000     0.00000000000000     0.00000000000000     1.81750000000000     0.00000000000000
   10     0.00000000000000     0.00000000000000     0.00000000000000     0.00000000000000     1.81750000000000



  ## Potential (Symmetry 0) ##
  Irrep: 1 Size: 10 x 10

                 1                   2                   3                   4                   5

    1    -1.95672700950040    -1.02732347693133    -0.20194062100635     0.00000000000000     0.00000000000000
    2    -1.02732347693133    -1.00729885232088    -0.16762841893705     0.00000000000000     0.00000000000000
    3    -0.20194062100635    -0.16762841893705    -1.60703462770008     0.00000000000000     0.00000000000000
    4     0.00000000000000     0.00000000000000     0.00000000000000    -1.42563488804141     0.00000000000000
    5     0.00000000000000     0.00000000000000     0.00000000000000     0.00000000000000    -1.42563488804141
    6    -0.84623728033779    -0.80261770889518    -0.97252294790185     0.00000000000000     0.00000000000000
    7    -0.80261770889518    -0.88226931613622    -0.38371326825066     0.00000000000000     0.00000000000000
    8     0.97252294790185     0.38371326825066     0.75471202039881     0.00000000000000     0.00000000000000
    9     0.00000000000000     0.00000000000000     0.00000000000000    -0.52565772687199     0.00000000000000
   10     0.00000000000000     0.00000000000000     0.00000000000000     0.00000000000000    -0.52565772687199

                 6                   7                   8                   9                  10

    1    -0.84623728033779    -0.80261770889518     0.97252294790185     0.00000000000000     0.00000000000000
    2    -0.80261770889518    -0.88226931613622     0.38371326825066     0.00000000000000     0.00000000000000
    3    -0.97252294790185    -0.38371326825066     0.75471202039881     0.00000000000000     0.00000000000000
    4     0.00000000000000     0.00000000000000     0.00000000000000    -0.52565772687199     0.00000000000000
    5     0.00000000000000     0.00000000000000     0.00000000000000     0.00000000000000    -0.52565772687199
    6    -1.95672700950040    -1.02732347693133     0.20194062100635     0.00000000000000     0.00000000000000
    7    -1.02732347693133    -1.00729885232088     0.16762841893705     0.00000000000000     0.00000000000000
    8     0.20194062100635     0.16762841893705    -1.60703462770008     0.00000000000000     0.00000000000000
    9     0.00000000000000     0.00000000000000     0.00000000000000    -1.42563488804141     0.00000000000000
   10     0.00000000000000     0.00000000000000     0.00000000000000     0.00000000000000    -1.42563488804141



  ## One Electron Ints (Symmetry 0) ##
  Irrep: 1 Size: 10 x 10

                 1                   2                   3                   4                   5

    1    -0.98726978238798    -0.82608934586595    -0.20194062100635     0.00000000000000     0.00000000000000
    2    -0.82608934586595    -0.82429885232088    -0.16762841893705     0.00000000000000     0.00000000000000
    3    -0.20194062100635    -0.16762841893705     0.21046537229992     0.00000000000000     0.00000000000000
    4     0.00000000000000     0.00000000000000     0.00000000000000     0.39186511195859     0.00000000000000
    5     0.00000000000000     0.00000000000000     0.00000000000000     0.00000000000000     0.39186511195859
    6    -0.69211380401069    -0.67985460832734    -0.51599395146801     0.00000000000000     0.00000000000000
    7    -0.67985460832734    -0.74691511763059    -0.30058153378114     0.00000000000000     0.00000000000000
    8     0.51599395146801     0.30058153378114    -0.18535004498377     0.00000000000000     0.00000000000000
    9     0.00000000000000     0.00000000000000     0.00000000000000    -0.15767151066363     0.00000000000000
   10     0.00000000000000     0.00000000000000     0.00000000000000     0.00000000000000    -0.15767151066363

                 6                   7                   8                   9                  10

    1    -0.69211380401069    -0.67985460832734     0.51599395146801     0.00000000000000     0.00000000000000
    2    -0.67985460832734    -0.74691511763059     0.30058153378114     0.00000000000000     0.00000000000000
    3    -0.51599395146801    -0.30058153378114    -0.18535004498377     0.00000000000000     0.00000000000000
    4     0.00000000000000     0.00000000000000     0.00000000000000    -0.15767151066363     0.00000000000000
    5     0.00000000000000     0.00000000000000     0.00000000000000     0.00000000000000    -0.15767151066363
    6    -0.98726978238798    -0.82608934586595     0.20194062100635     0.00000000000000     0.00000000000000
    7    -0.82608934586595    -0.82429885232088     0.16762841893705     0.00000000000000     0.00000000000000
    8     0.20194062100635     0.16762841893705     0.21046537229992     0.00000000000000     0.00000000000000
    9     0.00000000000000     0.00000000000000     0.00000000000000     0.39186511195859     0.00000000000000
   10     0.00000000000000     0.00000000000000     0.00000000000000     0.00000000000000     0.39186511195859




	There are 0 unique integrals

  ## Fock (Symmetry 0) ##
  Irrep: 1 Size: 10 x 10

                 1                   2                   3                   4                   5

    1    -0.31789190667430    -0.27075045994756     0.26038524061613    -0.00000000000000     0.00000000000000
    2    -0.27075045994756    -0.35047152234041     0.18036461294972     0.00000000000000     0.00000000000000
    3     0.26038524061613     0.18036461294972     0.83277591569207     0.00000000000000     0.00000000000000
    4    -0.00000000000000     0.00000000000000     0.00000000000000     0.50912625229638     0.00000000000000
    5     0.00000000000000     0.00000000000000     0.00000000000000     0.00000000000000     0.50912625229638
    6    -0.45864616775460    -0.16338387929646    -0.73356285952553    -0.00000000000000     0.00000000000000
    7    -0.16338387929646    -0.15311365162414    -0.16519734093610     0.00000000000000     0.00000000000000
    8     0.73356285952553     0.16519734093610     0.33873748081581    -0.00000000000000     0.00000000000000
    9     0.00000000000000     0.00000000000000     0.00000000000000    -0.33557648299091     0.00000000000000
   10     0.00000000000000     0.00000000000000     0.00000000000000     0.00000000000000    -0.33557648299091

                 6                   7                   8                   9                  10

    1    -0.45864616775460    -0.16338387929646     0.73356285952553     0.00000000000000     0.00000000000000
    2    -0.16338387929646    -0.15311365162414     0.16519734093610     0.00000000000000     0.00000000000000
    3    -0.73356285952553    -0.16519734093610     0.33873748081581     0.00000000000000     0.00000000000000
    4    -0.00000000000000     0.00000000000000    -0.00000000000000    -0.33557648299091     0.00000000000000
    5     0.00000000000000     0.00000000000000     0.00000000000000     0.00000000000000    -0.33557648299091
    6    -0.31789190667430    -0.27075045994756    -0.26038524061613    -0.00000000000000     0.00000000000000
    7    -0.27075045994756    -0.35047152234041    -0.18036461294972    -0.00000000000000     0.00000000000000
    8    -0.26038524061613    -0.18036461294972     0.83277591569207     0.00000000000000     0.00000000000000
    9    -0.00000000000000    -0.00000000000000     0.00000000000000     0.50912625229638     0.00000000000000
   10     0.00000000000000     0.00000000000000     0.00000000000000     0.00000000000000     0.50912625229638



  ## C (Symmetry 0) ##
  Irrep: 1 Size: 10 x 10

                 1                   2                   3                   4                   5

    1     1.33137078282683     0.53963436357386     0.16514719111771     0.52394611579911     0.31632110689423
    2    -0.90954122238638    -1.17492379419036    -0.00504397464791     0.13341915073097     0.04463198225279
    3     0.62902754253531    -0.82938679178092     0.33654726187313     0.52269684135093     0.41024277638410
    4     0.38840120811231    -0.61703858930837    -0.14141810833334    -0.00000000000000     0.13398315959813
    5    -0.06743096958355    -0.01617020055153    -0.11464325541018     0.71103393620534    -0.21452725255242
    6    -0.32899187599040     0.17181952113982    -0.50471595626127    -0.62696826296805    -1.13940484415990
    7    -0.08729440982751     0.67046698134294     0.93394267910123    -0.07663351276364     0.28980596550622
    8     0.50688706174451    -0.20067187226765     0.12033789022785     1.11627367612708     0.27112498693203
    9    -0.07006838741780     0.11131504749308     0.02551212147550     0.00000000000000    -0.74269186108597
   10     0.37378154422576     0.08963422252298     0.63548742227699    -0.12827200397078     0.03870116346078

                 6                   7                   8                   9                  10

    1     0.91489819152070     0.21070606090260    -0.45650307715309    -0.33307056252099     0.31632110689423
    2     1.06039797492891     0.38092590652188     1.38317399388783    -0.10648716889123     0.04463198225279
    3     0.85475976107146    -0.65110443406692    -0.17862952151939    -0.27514675628230     0.41024277638410
    4    -0.38840120811231     0.61703858930838    -0.14141810833333     0.00000000000000    -0.13398315959813
    5     0.06743096958355     0.01617020055153    -0.11464325541018     0.71103393620534    -0.21452725255242
    6    -0.39313133313194     0.12116244739181     0.45984527628040    -0.06057526573336    -1.13940484415990
    7    -1.08562275062617    -0.11800854742513    -1.63235319724699     0.25150920965413     0.28980596550622
    8     0.67192069518958    -0.07032900201414    -0.00488366466350    -0.95267051857528     0.27112498693203
    9     0.07006838741780    -0.11131504749308     0.02551212147550    -0.00000000000000     0.74269186108598
   10    -0.37378154422576    -0.08963422252298     0.63548742227699    -0.12827200397078     0.03870116346078




 In Bisection function HOMO = -1.182  LUMO =  1.805

 0.31125 = (-1.18237 + 1.80488)/2.0
 sum -  nocc_ = 4.79623306
 On Iteration in Bisection 0
 a: 4.79623  b:-0.49981

 -0.43556 = (-1.18237 + 0.31125)/2.0
 sum -  nocc_ = 1.03831037
 On Iteration in Bisection 1
 a: 1.03831  b:-0.49981

 -0.80896 = (-1.18237 + -0.43556)/2.0
 sum -  nocc_ = 0.06180068
 On Iteration in Bisection 2
 a: 0.06180  b:-0.49981

 -0.99566 = (-1.18237 + -0.80896)/2.0
 sum -  nocc_ = -0.04622843
 On Iteration in Bisection 3
 a: -0.04623  b:-0.49981

 -0.90231 = (-0.99566 + -0.80896)/2.0
 sum -  nocc_ = 0.00368156
 On Iteration in Bisection 4
 a: 0.00368  b:-0.04623

 -0.94899 = (-0.99566 + -0.90231)/2.0
 sum -  nocc_ = -0.01698179
 On Iteration in Bisection 5
 a: -0.01698  b:-0.04623

 -0.92565 = (-0.94899 + -0.90231)/2.0
 sum -  nocc_ = -0.00625753
 On Iteration in Bisection 6
 a: -0.00626  b:-0.01698

 -0.91398 = (-0.92565 + -0.90231)/2.0
 sum -  nocc_ = -0.00126821
 On Iteration in Bisection 7
 a: -0.00127  b:-0.00626

 -0.90815 = (-0.91398 + -0.90231)/2.0
 sum -  nocc_ = 0.00120196
 On Iteration in Bisection 8
 a: 0.00120  b:-0.00127

 -0.91106 = (-0.91398 + -0.90815)/2.0
 sum -  nocc_ = -0.00003309
 On Iteration in Bisection 9
 a: -0.00003  b:-0.00127

 -0.90960 = (-0.91106 + -0.90815)/2.0
 sum -  nocc_ = 0.00058429
 On Iteration in Bisection 10
 a: 0.00058  b:-0.00003

 -0.91033 = (-0.91106 + -0.90960)/2.0
 sum -  nocc_ = 0.00027558
 On Iteration in Bisection 11
 a: 0.00028  b:-0.00003

 -0.91070 = (-0.91106 + -0.91033)/2.0
 sum -  nocc_ = 0.00012124
 On Iteration in Bisection 12
 a: 0.00012  b:-0.00003

 -0.91088 = (-0.91106 + -0.91070)/2.0
 sum -  nocc_ = 0.00004407
 On Iteration in Bisection 13
 a: 0.00004  b:-0.00003

 -0.91097 = (-0.91106 + -0.91088)/2.0
 sum -  nocc_ = 0.00000549
 On Iteration in Bisection 14
 a: 0.00001  b:-0.00003

 -0.91102 = (-0.91106 + -0.91097)/2.0
 sum -  nocc_ = -0.00001380
 On Iteration in Bisection 15
 a: -0.00001  b:-0.00003

 -0.91099 = (-0.91102 + -0.91097)/2.0
 sum -  nocc_ = -0.00000416
 On Iteration in Bisection 16
 a: -0.00000  b:-0.00001

 -0.91098 = (-0.91099 + -0.91097)/2.0
 sum -  nocc_ = 0.00000067
 On Iteration in Bisection 17
 a: 0.00000  b:-0.00000

 -0.91099 = (-0.91099 + -0.91098)/2.0
 sum -  nocc_ = -0.00000174
 On Iteration in Bisection 18
 a: -0.00000  b:-0.00000

 -0.91099 = (-0.91099 + -0.91098)/2.0
 sum -  nocc_ = -0.00000054
 On Iteration in Bisection 19
 a: -0.00000  b:-0.00000

 -0.91099 = (-0.91099 + -0.91098)/2.0
 sum -  nocc_ = 0.00000006
 On Iteration in Bisection 20
 a: 0.00000  b:-0.00000

 -0.91099 = (-0.91099 + -0.91099)/2.0
 sum -  nocc_ = -0.00000024
 On Iteration in Bisection 21
 a: -0.00000  b:-0.00000

 -0.91099 = (-0.91099 + -0.91099)/2.0
 sum -  nocc_ = -0.00000009
 On Iteration in Bisection 22
 a: -0.00000  b:-0.00000

 -0.91099 = (-0.91099 + -0.91099)/2.0
 sum -  nocc_ = -0.00000001
 On Iteration in Bisection 23
 a: -0.00000  b:-0.00000

 -0.91099 = (-0.91099 + -0.91099)/2.0
 sum -  nocc_ = 0.00000003
 On Iteration in Bisection 24
 a: 0.00000  b:-0.00000

 -0.91099 = (-0.91099 + -0.91099)/2.0
 sum -  nocc_ = 0.00000001
 ef = -0.91099 sum = 1.00000 

 Iter: 0  T:    20000.000  val:-0.910985  sumni 0.00000
 ne = 1.0000

Nuc Replusion =       0.587974676211
 1st iteration =       0.480575871085
 In Bisection function HOMO = -0.182  LUMO =  2.753

 1.28545 = (-0.18224 + 2.75314)/2.0
 sum -  nocc_ = 4.72349521
 On Iteration in Bisection 0
 a: 4.72350  b:-0.49538

 0.55160 = (-0.18224 + 1.28545)/2.0
 sum -  nocc_ = 2.03547954
 On Iteration in Bisection 1
 a: 2.03548  b:-0.49538

 0.18468 = (-0.18224 + 0.55160)/2.0
 sum -  nocc_ = 0.69981285
 On Iteration in Bisection 2
 a: 0.69981  b:-0.49538

 0.00122 = (-0.18224 + 0.18468)/2.0
 sum -  nocc_ = 0.02625700
 On Iteration in Bisection 3
 a: 0.02626  b:-0.49538

 -0.09051 = (-0.18224 + 0.00122)/2.0
 sum -  nocc_ = -0.17082195
 On Iteration in Bisection 4
 a: -0.17082  b:-0.49538

 -0.04465 = (-0.09051 + 0.00122)/2.0
 sum -  nocc_ = -0.06283616
 On Iteration in Bisection 5
 a: -0.06284  b:-0.17082

 -0.02171 = (-0.04465 + 0.00122)/2.0
 sum -  nocc_ = -0.01766069
 On Iteration in Bisection 6
 a: -0.01766  b:-0.06284

 -0.01025 = (-0.02171 + 0.00122)/2.0
 sum -  nocc_ = 0.00421851
 On Iteration in Bisection 7
 a: 0.00422  b:-0.01766

 -0.01598 = (-0.02171 + -0.01025)/2.0
 sum -  nocc_ = -0.00671094
 On Iteration in Bisection 8
 a: -0.00671  b:-0.01766

 -0.01311 = (-0.01598 + -0.01025)/2.0
 sum -  nocc_ = -0.00124742
 On Iteration in Bisection 9
 a: -0.00125  b:-0.00671

 -0.01168 = (-0.01311 + -0.01025)/2.0
 sum -  nocc_ = 0.00148478
 On Iteration in Bisection 10
 a: 0.00148  b:-0.00125

 -0.01240 = (-0.01311 + -0.01168)/2.0
 sum -  nocc_ = 0.00011855
 On Iteration in Bisection 11
 a: 0.00012  b:-0.00125

 -0.01275 = (-0.01311 + -0.01240)/2.0
 sum -  nocc_ = -0.00056446
 On Iteration in Bisection 12
 a: -0.00056  b:-0.00125

 -0.01258 = (-0.01275 + -0.01240)/2.0
 sum -  nocc_ = -0.00022296
 On Iteration in Bisection 13
 a: -0.00022  b:-0.00056

 -0.01249 = (-0.01258 + -0.01240)/2.0
 sum -  nocc_ = -0.00005221
 On Iteration in Bisection 14
 a: -0.00005  b:-0.00022

 -0.01244 = (-0.01249 + -0.01240)/2.0
 sum -  nocc_ = 0.00003317
 On Iteration in Bisection 15
 a: 0.00003  b:-0.00005

 -0.01246 = (-0.01249 + -0.01244)/2.0
 sum -  nocc_ = -0.00000952
 On Iteration in Bisection 16
 a: -0.00001  b:-0.00005

 -0.01245 = (-0.01246 + -0.01244)/2.0
 sum -  nocc_ = 0.00001182
 On Iteration in Bisection 17
 a: 0.00001  b:-0.00001

 -0.01246 = (-0.01246 + -0.01245)/2.0
 sum -  nocc_ = 0.00000115
 On Iteration in Bisection 18
 a: 0.00000  b:-0.00001

 -0.01246 = (-0.01246 + -0.01246)/2.0
 sum -  nocc_ = -0.00000418
 On Iteration in Bisection 19
 a: -0.00000  b:-0.00001

 -0.01246 = (-0.01246 + -0.01246)/2.0
 sum -  nocc_ = -0.00000152
 On Iteration in Bisection 20
 a: -0.00000  b:-0.00000

 -0.01246 = (-0.01246 + -0.01246)/2.0
 sum -  nocc_ = -0.00000018
 On Iteration in Bisection 21
 a: -0.00000  b:-0.00000

 -0.01246 = (-0.01246 + -0.01246)/2.0
 sum -  nocc_ = 0.00000048
 On Iteration in Bisection 22
 a: 0.00000  b:-0.00000

 -0.01246 = (-0.01246 + -0.01246)/2.0
 sum -  nocc_ = 0.00000015
 On Iteration in Bisection 23
 a: 0.00000  b:-0.00000

 -0.01246 = (-0.01246 + -0.01246)/2.0
 sum -  nocc_ = -0.00000002
 On Iteration in Bisection 24
 a: -0.00000  b:-0.00000

 -0.01246 = (-0.01246 + -0.01246)/2.0
 sum -  nocc_ = 0.00000007
 On Iteration in Bisection 25
 a: 0.00000  b:-0.00000

 -0.01246 = (-0.01246 + -0.01246)/2.0
 sum -  nocc_ = 0.00000003
 On Iteration in Bisection 26
 a: 0.00000  b:-0.00000

 -0.01246 = (-0.01246 + -0.01246)/2.0
 sum -  nocc_ = 0.00000001
 ef = -0.01246 sum = 1.00000 

 Iter: 0  T:    20000.000  val:-0.012459  sumni 0.00000
 ne = 1.0000

 iter:1  failiter:1  energy:     -1.233805711443  total:     -0.645831035232  error:     -0.117414411555
 In Bisection function HOMO = -0.548  LUMO =  2.895

 1.17363 = (-0.54786 + 2.89512)/2.0
 sum -  nocc_ = 3.64668588
 On Iteration in Bisection 0
 a: 3.64669  b:-0.49997

 0.31289 = (-0.54786 + 1.17363)/2.0
 sum -  nocc_ = 1.01884175
 On Iteration in Bisection 1
 a: 1.01884  b:-0.49997

 -0.11748 = (-0.54786 + 0.31289)/2.0
 sum -  nocc_ = 0.02277533
 On Iteration in Bisection 2
 a: 0.02278  b:-0.49997

 -0.33267 = (-0.54786 + -0.11748)/2.0
 sum -  nocc_ = -0.03154897
 On Iteration in Bisection 3
 a: -0.03155  b:-0.49997

 -0.22508 = (-0.33267 + -0.11748)/2.0
 sum -  nocc_ = -0.00162418
 On Iteration in Bisection 4
 a: -0.00162  b:-0.03155

 -0.17128 = (-0.22508 + -0.11748)/2.0
 sum -  nocc_ = 0.00774937
 On Iteration in Bisection 5
 a: 0.00775  b:-0.00162

 -0.19818 = (-0.22508 + -0.17128)/2.0
 sum -  nocc_ = 0.00281368
 On Iteration in Bisection 6
 a: 0.00281  b:-0.00162

 -0.21163 = (-0.22508 + -0.19818)/2.0
 sum -  nocc_ = 0.00058198
 On Iteration in Bisection 7
 a: 0.00058  b:-0.00162

 -0.21835 = (-0.22508 + -0.21163)/2.0
 sum -  nocc_ = -0.00051827
 On Iteration in Bisection 8
 a: -0.00052  b:-0.00162

 -0.21499 = (-0.21835 + -0.21163)/2.0
 sum -  nocc_ = 0.00003181
 On Iteration in Bisection 9
 a: 0.00003  b:-0.00052

 -0.21667 = (-0.21835 + -0.21499)/2.0
 sum -  nocc_ = -0.00024314
 On Iteration in Bisection 10
 a: -0.00024  b:-0.00052

 -0.21583 = (-0.21667 + -0.21499)/2.0
 sum -  nocc_ = -0.00010566
 On Iteration in Bisection 11
 a: -0.00011  b:-0.00024

 -0.21541 = (-0.21583 + -0.21499)/2.0
 sum -  nocc_ = -0.00003692
 On Iteration in Bisection 12
 a: -0.00004  b:-0.00011

 -0.21520 = (-0.21541 + -0.21499)/2.0
 sum -  nocc_ = -0.00000255
 On Iteration in Bisection 13
 a: -0.00000  b:-0.00004

 -0.21510 = (-0.21520 + -0.21499)/2.0
 sum -  nocc_ = 0.00001463
 On Iteration in Bisection 14
 a: 0.00001  b:-0.00000

 -0.21515 = (-0.21520 + -0.21510)/2.0
 sum -  nocc_ = 0.00000604
 On Iteration in Bisection 15
 a: 0.00001  b:-0.00000

 -0.21517 = (-0.21520 + -0.21515)/2.0
 sum -  nocc_ = 0.00000174
 On Iteration in Bisection 16
 a: 0.00000  b:-0.00000

 -0.21519 = (-0.21520 + -0.21517)/2.0
 sum -  nocc_ = -0.00000040
 On Iteration in Bisection 17
 a: -0.00000  b:-0.00000

 -0.21518 = (-0.21519 + -0.21517)/2.0
 sum -  nocc_ = 0.00000067
 On Iteration in Bisection 18
 a: 0.00000  b:-0.00000

 -0.21518 = (-0.21519 + -0.21518)/2.0
 sum -  nocc_ = 0.00000013
 On Iteration in Bisection 19
 a: 0.00000  b:-0.00000

 -0.21519 = (-0.21519 + -0.21518)/2.0
 sum -  nocc_ = -0.00000014
 On Iteration in Bisection 20
 a: -0.00000  b:-0.00000

 -0.21518 = (-0.21519 + -0.21518)/2.0
 sum -  nocc_ = -0.00000000
 ef = -0.21518 sum = 1.00000 

 Iter: 1  T:    20000.000  val:-0.215185  sumni 0.00000
 ne = 1.0000

 iter:2  failiter:2  energy:     -1.694410522693  total:     -1.106435846482  error:     -0.460604811250
 In Bisection function HOMO = -0.550  LUMO =  2.944

 1.19691 = (-0.54968 + 2.94350)/2.0
 sum -  nocc_ = 3.43137104
 On Iteration in Bisection 0
 a: 3.43137  b:-0.49999

 0.32362 = (-0.54968 + 1.19691)/2.0
 sum -  nocc_ = 0.97544141
 On Iteration in Bisection 1
 a: 0.97544  b:-0.49999

 -0.11303 = (-0.54968 + 0.32362)/2.0
 sum -  nocc_ = 0.01201782
 On Iteration in Bisection 2
 a: 0.01202  b:-0.49999

 -0.33135 = (-0.54968 + -0.11303)/2.0
 sum -  nocc_ = -0.03043060
 On Iteration in Bisection 3
 a: -0.03043  b:-0.49999

 -0.22219 = (-0.33135 + -0.11303)/2.0
 sum -  nocc_ = -0.00329767
 On Iteration in Bisection 4
 a: -0.00330  b:-0.03043

 -0.16761 = (-0.22219 + -0.11303)/2.0
 sum -  nocc_ = 0.00315202
 On Iteration in Bisection 5
 a: 0.00315  b:-0.00330

 -0.19490 = (-0.22219 + -0.16761)/2.0
 sum -  nocc_ = -0.00006671
 On Iteration in Bisection 6
 a: -0.00007  b:-0.00330

 -0.18126 = (-0.19490 + -0.16761)/2.0
 sum -  nocc_ = 0.00150829
 On Iteration in Bisection 7
 a: 0.00151  b:-0.00007

 -0.18808 = (-0.19490 + -0.18126)/2.0
 sum -  nocc_ = 0.00071672
 On Iteration in Bisection 8
 a: 0.00072  b:-0.00007

 -0.19149 = (-0.19490 + -0.18808)/2.0
 sum -  nocc_ = 0.00032454
 On Iteration in Bisection 9
 a: 0.00032  b:-0.00007

 -0.19320 = (-0.19490 + -0.19149)/2.0
 sum -  nocc_ = 0.00012887
 On Iteration in Bisection 10
 a: 0.00013  b:-0.00007

 -0.19405 = (-0.19490 + -0.19320)/2.0
 sum -  nocc_ = 0.00003108
 On Iteration in Bisection 11
 a: 0.00003  b:-0.00007

 -0.19447 = (-0.19490 + -0.19405)/2.0
 sum -  nocc_ = -0.00001782
 On Iteration in Bisection 12
 a: -0.00002  b:-0.00007

 -0.19426 = (-0.19447 + -0.19405)/2.0
 sum -  nocc_ = 0.00000663
 On Iteration in Bisection 13
 a: 0.00001  b:-0.00002

 -0.19437 = (-0.19447 + -0.19426)/2.0
 sum -  nocc_ = -0.00000559
 On Iteration in Bisection 14
 a: -0.00001  b:-0.00002

 -0.19431 = (-0.19437 + -0.19426)/2.0
 sum -  nocc_ = 0.00000052
 On Iteration in Bisection 15
 a: 0.00000  b:-0.00001

 -0.19434 = (-0.19437 + -0.19431)/2.0
 sum -  nocc_ = -0.00000254
 On Iteration in Bisection 16
 a: -0.00000  b:-0.00001

 -0.19433 = (-0.19434 + -0.19431)/2.0
 sum -  nocc_ = -0.00000101
 On Iteration in Bisection 17
 a: -0.00000  b:-0.00000

 -0.19432 = (-0.19433 + -0.19431)/2.0
 sum -  nocc_ = -0.00000024
 On Iteration in Bisection 18
 a: -0.00000  b:-0.00000

 -0.19432 = (-0.19432 + -0.19431)/2.0
 sum -  nocc_ = 0.00000014
 On Iteration in Bisection 19
 a: 0.00000  b:-0.00000

 -0.19432 = (-0.19432 + -0.19432)/2.0
 sum -  nocc_ = -0.00000005
 On Iteration in Bisection 20
 a: -0.00000  b:-0.00000

 -0.19432 = (-0.19432 + -0.19432)/2.0
 sum -  nocc_ = 0.00000004
 On Iteration in Bisection 21
 a: 0.00000  b:-0.00000

 -0.19432 = (-0.19432 + -0.19432)/2.0
 sum -  nocc_ = -0.00000001
 ef = -0.19432 sum = 1.00000 

 Iter: 2  T:    20000.000  val:-0.194319  sumni 0.00000
 ne = 1.0000

 iter:3  failiter:3  energy:     -1.700407304836  total:     -1.112432628625  error:     -0.005996782142
 In Bisection function HOMO = -0.548  LUMO =  2.947

 1.19947 = (-0.54837 + 2.94732)/2.0
 sum -  nocc_ = 3.42510834
 On Iteration in Bisection 0
 a: 3.42511  b:-0.49999

 0.32555 = (-0.54837 + 1.19947)/2.0
 sum -  nocc_ = 0.97547417
 On Iteration in Bisection 1
 a: 0.97547  b:-0.49999

 -0.11141 = (-0.54837 + 0.32555)/2.0
 sum -  nocc_ = 0.01190705
 On Iteration in Bisection 2
 a: 0.01191  b:-0.49999

 -0.32989 = (-0.54837 + -0.11141)/2.0
 sum -  nocc_ = -0.03036143
 On Iteration in Bisection 3
 a: -0.03036  b:-0.49999

 -0.22065 = (-0.32989 + -0.11141)/2.0
 sum -  nocc_ = -0.00330082
 On Iteration in Bisection 4
 a: -0.00330  b:-0.03036

 -0.16603 = (-0.22065 + -0.11141)/2.0
 sum -  nocc_ = 0.00310932
 On Iteration in Bisection 5
 a: 0.00311  b:-0.00330

 -0.19334 = (-0.22065 + -0.16603)/2.0
 sum -  nocc_ = -0.00008769
 On Iteration in Bisection 6
 a: -0.00009  b:-0.00330

 -0.17969 = (-0.19334 + -0.16603)/2.0
 sum -  nocc_ = 0.00147711
 On Iteration in Bisection 7
 a: 0.00148  b:-0.00009

 -0.18651 = (-0.19334 + -0.17969)/2.0
 sum -  nocc_ = 0.00069078
 On Iteration in Bisection 8
 a: 0.00069  b:-0.00009

 -0.18993 = (-0.19334 + -0.18651)/2.0
 sum -  nocc_ = 0.00030112
 On Iteration in Bisection 9
 a: 0.00030  b:-0.00009

 -0.19163 = (-0.19334 + -0.18993)/2.0
 sum -  nocc_ = 0.00010668
 On Iteration in Bisection 10
 a: 0.00011  b:-0.00009

 -0.19249 = (-0.19334 + -0.19163)/2.0
 sum -  nocc_ = 0.00000949
 On Iteration in Bisection 11
 a: 0.00001  b:-0.00009

 -0.19291 = (-0.19334 + -0.19249)/2.0
 sum -  nocc_ = -0.00003909
 On Iteration in Bisection 12
 a: -0.00004  b:-0.00009

 -0.19270 = (-0.19291 + -0.19249)/2.0
 sum -  nocc_ = -0.00001480
 On Iteration in Bisection 13
 a: -0.00001  b:-0.00004

 -0.19259 = (-0.19270 + -0.19249)/2.0
 sum -  nocc_ = -0.00000265
 On Iteration in Bisection 14
 a: -0.00000  b:-0.00001

 -0.19254 = (-0.19259 + -0.19249)/2.0
 sum -  nocc_ = 0.00000342
 On Iteration in Bisection 15
 a: 0.00000  b:-0.00000

 -0.19257 = (-0.19259 + -0.19254)/2.0
 sum -  nocc_ = 0.00000038
 On Iteration in Bisection 16
 a: 0.00000  b:-0.00000

 -0.19258 = (-0.19259 + -0.19257)/2.0
 sum -  nocc_ = -0.00000113
 On Iteration in Bisection 17
 a: -0.00000  b:-0.00000

 -0.19257 = (-0.19258 + -0.19257)/2.0
 sum -  nocc_ = -0.00000037
 On Iteration in Bisection 18
 a: -0.00000  b:-0.00000

 -0.19257 = (-0.19257 + -0.19257)/2.0
 sum -  nocc_ = 0.00000000
 ef = -0.19257 sum = 1.00000 

 Iter: 3  T:    20000.000  val:-0.192571  sumni 0.00000
 ne = 1.0000

 iter:4  failiter:4  energy:     -1.699441927801  total:     -1.111467251590  error:      0.000965377035
 In Bisection function HOMO = -0.548  LUMO =  2.948

 1.19986 = (-0.54812 + 2.94784)/2.0
 sum -  nocc_ = 3.42468455
 On Iteration in Bisection 0
 a: 3.42468  b:-0.49999

 0.32587 = (-0.54812 + 1.19986)/2.0
 sum -  nocc_ = 0.97567739
 On Iteration in Bisection 1
 a: 0.97568  b:-0.49999

 -0.11113 = (-0.54812 + 0.32587)/2.0
 sum -  nocc_ = 0.01191937
 On Iteration in Bisection 2
 a: 0.01192  b:-0.49999

 -0.32962 = (-0.54812 + -0.11113)/2.0
 sum -  nocc_ = -0.03035300
 On Iteration in Bisection 3
 a: -0.03035  b:-0.49999

 -0.22038 = (-0.32962 + -0.11113)/2.0
 sum -  nocc_ = -0.00329670
 On Iteration in Bisection 4
 a: -0.00330  b:-0.03035

 -0.16575 = (-0.22038 + -0.11113)/2.0
 sum -  nocc_ = 0.00311513
 On Iteration in Bisection 5
 a: 0.00312  b:-0.00330

 -0.19306 = (-0.22038 + -0.16575)/2.0
 sum -  nocc_ = -0.00008314
 On Iteration in Bisection 6
 a: -0.00008  b:-0.00330

 -0.17941 = (-0.19306 + -0.16575)/2.0
 sum -  nocc_ = 0.00148217
 On Iteration in Bisection 7
 a: 0.00148  b:-0.00008

 -0.18624 = (-0.19306 + -0.17941)/2.0
 sum -  nocc_ = 0.00069555
 On Iteration in Bisection 8
 a: 0.00070  b:-0.00008

 -0.18965 = (-0.19306 + -0.18624)/2.0
 sum -  nocc_ = 0.00030577
 On Iteration in Bisection 9
 a: 0.00031  b:-0.00008

 -0.19136 = (-0.19306 + -0.18965)/2.0
 sum -  nocc_ = 0.00011128
 On Iteration in Bisection 10
 a: 0.00011  b:-0.00008

 -0.19221 = (-0.19306 + -0.19136)/2.0
 sum -  nocc_ = 0.00001407
 On Iteration in Bisection 11
 a: 0.00001  b:-0.00008

 -0.19264 = (-0.19306 + -0.19221)/2.0
 sum -  nocc_ = -0.00003454
 On Iteration in Bisection 12
 a: -0.00003  b:-0.00008

 -0.19242 = (-0.19264 + -0.19221)/2.0
 sum -  nocc_ = -0.00001024
 On Iteration in Bisection 13
 a: -0.00001  b:-0.00003

 -0.19232 = (-0.19242 + -0.19221)/2.0
 sum -  nocc_ = 0.00000192
 On Iteration in Bisection 14
 a: 0.00000  b:-0.00001

 -0.19237 = (-0.19242 + -0.19232)/2.0
 sum -  nocc_ = -0.00000416
 On Iteration in Bisection 15
 a: -0.00000  b:-0.00001

 -0.19234 = (-0.19237 + -0.19232)/2.0
 sum -  nocc_ = -0.00000112
 On Iteration in Bisection 16
 a: -0.00000  b:-0.00000

 -0.19233 = (-0.19234 + -0.19232)/2.0
 sum -  nocc_ = 0.00000040
 On Iteration in Bisection 17
 a: 0.00000  b:-0.00000

 -0.19234 = (-0.19234 + -0.19233)/2.0
 sum -  nocc_ = -0.00000036
 On Iteration in Bisection 18
 a: -0.00000  b:-0.00000

 -0.19233 = (-0.19234 + -0.19233)/2.0
 sum -  nocc_ = 0.00000002
 On Iteration in Bisection 19
 a: 0.00000  b:-0.00000

 -0.19233 = (-0.19234 + -0.19233)/2.0
 sum -  nocc_ = -0.00000017
 On Iteration in Bisection 20
 a: -0.00000  b:-0.00000

 -0.19233 = (-0.19233 + -0.19233)/2.0
 sum -  nocc_ = -0.00000008
 On Iteration in Bisection 21
 a: -0.00000  b:-0.00000

 -0.19233 = (-0.19233 + -0.19233)/2.0
 sum -  nocc_ = -0.00000003
 On Iteration in Bisection 22
 a: -0.00000  b:-0.00000

 -0.19233 = (-0.19233 + -0.19233)/2.0
 sum -  nocc_ = -0.00000001
 ef = -0.19233 sum = 1.00000 

 Iter: 4  T:    20000.000  val:-0.192333  sumni 0.00000
 ne = 1.0000

 iter:5  failiter:5  energy:     -1.699241201304  total:     -1.111266525093  error:      0.000200726497
 In Bisection function HOMO = -0.548  LUMO =  2.948

 1.19993 = (-0.54808 + 2.94794)/2.0
 sum -  nocc_ = 3.42463285
 On Iteration in Bisection 0
 a: 3.42463  b:-0.49999

 0.32593 = (-0.54808 + 1.19993)/2.0
 sum -  nocc_ = 0.97571982
 On Iteration in Bisection 1
 a: 0.97572  b:-0.49999

 -0.11108 = (-0.54808 + 0.32593)/2.0
 sum -  nocc_ = 0.01192246
 On Iteration in Bisection 2
 a: 0.01192  b:-0.49999

 -0.32958 = (-0.54808 + -0.11108)/2.0
 sum -  nocc_ = -0.03035158
 On Iteration in Bisection 3
 a: -0.03035  b:-0.49999

 -0.22033 = (-0.32958 + -0.11108)/2.0
 sum -  nocc_ = -0.00329582
 On Iteration in Bisection 4
 a: -0.00330  b:-0.03035

 -0.16570 = (-0.22033 + -0.11108)/2.0
 sum -  nocc_ = 0.00311654
 On Iteration in Bisection 5
 a: 0.00312  b:-0.00330

 -0.19301 = (-0.22033 + -0.16570)/2.0
 sum -  nocc_ = -0.00008210
 On Iteration in Bisection 6
 a: -0.00008  b:-0.00330

 -0.17936 = (-0.19301 + -0.16570)/2.0
 sum -  nocc_ = 0.00148337
 On Iteration in Bisection 7
 a: 0.00148  b:-0.00008

 -0.18619 = (-0.19301 + -0.17936)/2.0
 sum -  nocc_ = 0.00069667
 On Iteration in Bisection 8
 a: 0.00070  b:-0.00008

 -0.18960 = (-0.19301 + -0.18619)/2.0
 sum -  nocc_ = 0.00030685
 On Iteration in Bisection 9
 a: 0.00031  b:-0.00008

 -0.19131 = (-0.19301 + -0.18960)/2.0
 sum -  nocc_ = 0.00011234
 On Iteration in Bisection 10
 a: 0.00011  b:-0.00008

 -0.19216 = (-0.19301 + -0.19131)/2.0
 sum -  nocc_ = 0.00001512
 On Iteration in Bisection 11
 a: 0.00002  b:-0.00008

 -0.19259 = (-0.19301 + -0.19216)/2.0
 sum -  nocc_ = -0.00003349
 On Iteration in Bisection 12
 a: -0.00003  b:-0.00008

 -0.19237 = (-0.19259 + -0.19216)/2.0
 sum -  nocc_ = -0.00000918
 On Iteration in Bisection 13
 a: -0.00001  b:-0.00003

 -0.19227 = (-0.19237 + -0.19216)/2.0
 sum -  nocc_ = 0.00000297
 On Iteration in Bisection 14
 a: 0.00000  b:-0.00001

 -0.19232 = (-0.19237 + -0.19227)/2.0
 sum -  nocc_ = -0.00000311
 On Iteration in Bisection 15
 a: -0.00000  b:-0.00001

 -0.19229 = (-0.19232 + -0.19227)/2.0
 sum -  nocc_ = -0.00000007
 On Iteration in Bisection 16
 a: -0.00000  b:-0.00000

 -0.19228 = (-0.19229 + -0.19227)/2.0
 sum -  nocc_ = 0.00000145
 On Iteration in Bisection 17
 a: 0.00000  b:-0.00000

 -0.19229 = (-0.19229 + -0.19228)/2.0
 sum -  nocc_ = 0.00000069
 On Iteration in Bisection 18
 a: 0.00000  b:-0.00000

 -0.19229 = (-0.19229 + -0.19229)/2.0
 sum -  nocc_ = 0.00000031
 On Iteration in Bisection 19
 a: 0.00000  b:-0.00000

 -0.19229 = (-0.19229 + -0.19229)/2.0
 sum -  nocc_ = 0.00000012
 On Iteration in Bisection 20
 a: 0.00000  b:-0.00000

 -0.19229 = (-0.19229 + -0.19229)/2.0
 sum -  nocc_ = 0.00000002
 On Iteration in Bisection 21
 a: 0.00000  b:-0.00000

 -0.19229 = (-0.19229 + -0.19229)/2.0
 sum -  nocc_ = -0.00000002
 On Iteration in Bisection 22
 a: -0.00000  b:-0.00000

 -0.19229 = (-0.19229 + -0.19229)/2.0
 sum -  nocc_ = 0.00000000
 ef = -0.19229 sum = 1.00000 

 Iter: 5  T:    20000.000  val:-0.192293  sumni 0.00000
 ne = 1.0000

 iter:6  failiter:6  energy:     -1.699204876650  total:     -1.111230200439  error:      0.000036324654
 In Bisection function HOMO = -0.548  LUMO =  2.948

 1.19994 = (-0.54807 + 2.94795)/2.0
 sum -  nocc_ = 3.42462470
 On Iteration in Bisection 0
 a: 3.42462  b:-0.49999

 0.32594 = (-0.54807 + 1.19994)/2.0
 sum -  nocc_ = 0.97572806
 On Iteration in Bisection 1
 a: 0.97573  b:-0.49999

 -0.11107 = (-0.54807 + 0.32594)/2.0
 sum -  nocc_ = 0.01192308
 On Iteration in Bisection 2
 a: 0.01192  b:-0.49999

 -0.32957 = (-0.54807 + -0.11107)/2.0
 sum -  nocc_ = -0.03035132
 On Iteration in Bisection 3
 a: -0.03035  b:-0.49999

 -0.22032 = (-0.32957 + -0.11107)/2.0
 sum -  nocc_ = -0.00329566
 On Iteration in Bisection 4
 a: -0.00330  b:-0.03035

 -0.16569 = (-0.22032 + -0.11107)/2.0
 sum -  nocc_ = 0.00311682
 On Iteration in Bisection 5
 a: 0.00312  b:-0.00330

 -0.19300 = (-0.22032 + -0.16569)/2.0
 sum -  nocc_ = -0.00008189
 On Iteration in Bisection 6
 a: -0.00008  b:-0.00330

 -0.17935 = (-0.19300 + -0.16569)/2.0
 sum -  nocc_ = 0.00148361
 On Iteration in Bisection 7
 a: 0.00148  b:-0.00008

 -0.18618 = (-0.19300 + -0.17935)/2.0
 sum -  nocc_ = 0.00069689
 On Iteration in Bisection 8
 a: 0.00070  b:-0.00008

 -0.18959 = (-0.19300 + -0.18618)/2.0
 sum -  nocc_ = 0.00030706
 On Iteration in Bisection 9
 a: 0.00031  b:-0.00008

 -0.19130 = (-0.19300 + -0.18959)/2.0
 sum -  nocc_ = 0.00011255
 On Iteration in Bisection 10
 a: 0.00011  b:-0.00008

 -0.19215 = (-0.19300 + -0.19130)/2.0
 sum -  nocc_ = 0.00001533
 On Iteration in Bisection 11
 a: 0.00002  b:-0.00008

 -0.19258 = (-0.19300 + -0.19215)/2.0
 sum -  nocc_ = -0.00003328
 On Iteration in Bisection 12
 a: -0.00003  b:-0.00008

 -0.19236 = (-0.19258 + -0.19215)/2.0
 sum -  nocc_ = -0.00000898
 On Iteration in Bisection 13
 a: -0.00001  b:-0.00003

 -0.19226 = (-0.19236 + -0.19215)/2.0
 sum -  nocc_ = 0.00000318
 On Iteration in Bisection 14
 a: 0.00000  b:-0.00001

 -0.19231 = (-0.19236 + -0.19226)/2.0
 sum -  nocc_ = -0.00000290
 On Iteration in Bisection 15
 a: -0.00000  b:-0.00001

 -0.19228 = (-0.19231 + -0.19226)/2.0
 sum -  nocc_ = 0.00000014
 On Iteration in Bisection 16
 a: 0.00000  b:-0.00000

 -0.19230 = (-0.19231 + -0.19228)/2.0
 sum -  nocc_ = -0.00000138
 On Iteration in Bisection 17
 a: -0.00000  b:-0.00000

 -0.19229 = (-0.19230 + -0.19228)/2.0
 sum -  nocc_ = -0.00000062
 On Iteration in Bisection 18
 a: -0.00000  b:-0.00000

 -0.19229 = (-0.19229 + -0.19228)/2.0
 sum -  nocc_ = -0.00000024
 On Iteration in Bisection 19
 a: -0.00000  b:-0.00000

 -0.19229 = (-0.19229 + -0.19228)/2.0
 sum -  nocc_ = -0.00000005
 On Iteration in Bisection 20
 a: -0.00000  b:-0.00000

 -0.19229 = (-0.19229 + -0.19228)/2.0
 sum -  nocc_ = 0.00000004
 On Iteration in Bisection 21
 a: 0.00000  b:-0.00000

 -0.19229 = (-0.19229 + -0.19229)/2.0
 sum -  nocc_ = -0.00000001
 ef = -0.19229 sum = 1.00000 

 Iter: 6  T:    20000.000  val:-0.192286  sumni 0.00000
 ne = 1.0000

 iter:7  failiter:7  energy:     -1.699198085591  total:     -1.111223409380  error:      0.000006791059
 In Bisection function HOMO = -0.548  LUMO =  2.948

 1.19994 = (-0.54807 + 2.94795)/2.0
 sum -  nocc_ = 3.42462327
 On Iteration in Bisection 0
 a: 3.42462  b:-0.49999

 0.32594 = (-0.54807 + 1.19994)/2.0
 sum -  nocc_ = 0.97572965
 On Iteration in Bisection 1
 a: 0.97573  b:-0.49999

 -0.11106 = (-0.54807 + 0.32594)/2.0
 sum -  nocc_ = 0.01192320
 On Iteration in Bisection 2
 a: 0.01192  b:-0.49999

 -0.32957 = (-0.54807 + -0.11106)/2.0
 sum -  nocc_ = -0.03035127
 On Iteration in Bisection 3
 a: -0.03035  b:-0.49999

 -0.22032 = (-0.32957 + -0.11106)/2.0
 sum -  nocc_ = -0.00329562
 On Iteration in Bisection 4
 a: -0.00330  b:-0.03035

 -0.16569 = (-0.22032 + -0.11106)/2.0
 sum -  nocc_ = 0.00311688
 On Iteration in Bisection 5
 a: 0.00312  b:-0.00330

 -0.19300 = (-0.22032 + -0.16569)/2.0
 sum -  nocc_ = -0.00008185
 On Iteration in Bisection 6
 a: -0.00008  b:-0.00330

 -0.17935 = (-0.19300 + -0.16569)/2.0
 sum -  nocc_ = 0.00148365
 On Iteration in Bisection 7
 a: 0.00148  b:-0.00008

 -0.18617 = (-0.19300 + -0.17935)/2.0
 sum -  nocc_ = 0.00069693
 On Iteration in Bisection 8
 a: 0.00070  b:-0.00008

 -0.18959 = (-0.19300 + -0.18617)/2.0
 sum -  nocc_ = 0.00030710
 On Iteration in Bisection 9
 a: 0.00031  b:-0.00008

 -0.19130 = (-0.19300 + -0.18959)/2.0
 sum -  nocc_ = 0.00011259
 On Iteration in Bisection 10
 a: 0.00011  b:-0.00008

 -0.19215 = (-0.19300 + -0.19130)/2.0
 sum -  nocc_ = 0.00001537
 On Iteration in Bisection 11
 a: 0.00002  b:-0.00008

 -0.19258 = (-0.19300 + -0.19215)/2.0
 sum -  nocc_ = -0.00003324
 On Iteration in Bisection 12
 a: -0.00003  b:-0.00008

 -0.19236 = (-0.19258 + -0.19215)/2.0
 sum -  nocc_ = -0.00000894
 On Iteration in Bisection 13
 a: -0.00001  b:-0.00003

 -0.19226 = (-0.19236 + -0.19215)/2.0
 sum -  nocc_ = 0.00000322
 On Iteration in Bisection 14
 a: 0.00000  b:-0.00001

 -0.19231 = (-0.19236 + -0.19226)/2.0
 sum -  nocc_ = -0.00000286
 On Iteration in Bisection 15
 a: -0.00000  b:-0.00001

 -0.19228 = (-0.19231 + -0.19226)/2.0
 sum -  nocc_ = 0.00000018
 On Iteration in Bisection 16
 a: 0.00000  b:-0.00000

 -0.19230 = (-0.19231 + -0.19228)/2.0
 sum -  nocc_ = -0.00000134
 On Iteration in Bisection 17
 a: -0.00000  b:-0.00000

 -0.19229 = (-0.19230 + -0.19228)/2.0
 sum -  nocc_ = -0.00000058
 On Iteration in Bisection 18
 a: -0.00000  b:-0.00000

 -0.19229 = (-0.19229 + -0.19228)/2.0
 sum -  nocc_ = -0.00000020
 On Iteration in Bisection 19
 a: -0.00000  b:-0.00000

 -0.19228 = (-0.19229 + -0.19228)/2.0
 sum -  nocc_ = -0.00000001
 On Iteration in Bisection 20
 a: -0.00000  b:-0.00000

 -0.19228 = (-0.19228 + -0.19228)/2.0
 sum -  nocc_ = 0.00000008
 On Iteration in Bisection 21
 a: 0.00000  b:-0.00000

 -0.19228 = (-0.19228 + -0.19228)/2.0
 sum -  nocc_ = 0.00000003
 On Iteration in Bisection 22
 a: 0.00000  b:-0.00000

 -0.19228 = (-0.19228 + -0.19228)/2.0
 sum -  nocc_ = 0.00000001
 On Iteration in Bisection 23
 a: 0.00000  b:-0.00000

 -0.19228 = (-0.19228 + -0.19228)/2.0
 sum -  nocc_ = -0.00000000
 ef = -0.19228 sum = 1.00000 

 Iter: 7  T:    20000.000  val:-0.192284  sumni 0.00000
 ne = 1.0000

 iter:8  failiter:8  energy:     -1.699196802288  total:     -1.111222126077  error:      0.000001283303
 In Bisection function HOMO = -0.548  LUMO =  2.948

 1.19994 = (-0.54807 + 2.94796)/2.0
 sum -  nocc_ = 3.42462300
 On Iteration in Bisection 0
 a: 3.42462  b:-0.49999

 0.32594 = (-0.54807 + 1.19994)/2.0
 sum -  nocc_ = 0.97572996
 On Iteration in Bisection 1
 a: 0.97573  b:-0.49999

 -0.11106 = (-0.54807 + 0.32594)/2.0
 sum -  nocc_ = 0.01192322
 On Iteration in Bisection 2
 a: 0.01192  b:-0.49999

 -0.32957 = (-0.54807 + -0.11106)/2.0
 sum -  nocc_ = -0.03035126
 On Iteration in Bisection 3
 a: -0.03035  b:-0.49999

 -0.22032 = (-0.32957 + -0.11106)/2.0
 sum -  nocc_ = -0.00329562
 On Iteration in Bisection 4
 a: -0.00330  b:-0.03035

 -0.16569 = (-0.22032 + -0.11106)/2.0
 sum -  nocc_ = 0.00311689
 On Iteration in Bisection 5
 a: 0.00312  b:-0.00330

 -0.19300 = (-0.22032 + -0.16569)/2.0
 sum -  nocc_ = -0.00008184
 On Iteration in Bisection 6
 a: -0.00008  b:-0.00330

 -0.17935 = (-0.19300 + -0.16569)/2.0
 sum -  nocc_ = 0.00148366
 On Iteration in Bisection 7
 a: 0.00148  b:-0.00008

 -0.18617 = (-0.19300 + -0.17935)/2.0
 sum -  nocc_ = 0.00069694
 On Iteration in Bisection 8
 a: 0.00070  b:-0.00008

 -0.18959 = (-0.19300 + -0.18617)/2.0
 sum -  nocc_ = 0.00030711
 On Iteration in Bisection 9
 a: 0.00031  b:-0.00008

 -0.19130 = (-0.19300 + -0.18959)/2.0
 sum -  nocc_ = 0.00011260
 On Iteration in Bisection 10
 a: 0.00011  b:-0.00008

 -0.19215 = (-0.19300 + -0.19130)/2.0
 sum -  nocc_ = 0.00001538
 On Iteration in Bisection 11
 a: 0.00002  b:-0.00008

 -0.19258 = (-0.19300 + -0.19215)/2.0
 sum -  nocc_ = -0.00003323
 On Iteration in Bisection 12
 a: -0.00003  b:-0.00008

 -0.19236 = (-0.19258 + -0.19215)/2.0
 sum -  nocc_ = -0.00000893
 On Iteration in Bisection 13
 a: -0.00001  b:-0.00003

 -0.19226 = (-0.19236 + -0.19215)/2.0
 sum -  nocc_ = 0.00000322
 On Iteration in Bisection 14
 a: 0.00000  b:-0.00001

 -0.19231 = (-0.19236 + -0.19226)/2.0
 sum -  nocc_ = -0.00000285
 On Iteration in Bisection 15
 a: -0.00000  b:-0.00001

 -0.19228 = (-0.19231 + -0.19226)/2.0
 sum -  nocc_ = 0.00000019
 On Iteration in Bisection 16
 a: 0.00000  b:-0.00000

 -0.19230 = (-0.19231 + -0.19228)/2.0
 sum -  nocc_ = -0.00000133
 On Iteration in Bisection 17
 a: -0.00000  b:-0.00000

 -0.19229 = (-0.19230 + -0.19228)/2.0
 sum -  nocc_ = -0.00000057
 On Iteration in Bisection 18
 a: -0.00000  b:-0.00000

 -0.19229 = (-0.19229 + -0.19228)/2.0
 sum -  nocc_ = -0.00000019
 On Iteration in Bisection 19
 a: -0.00000  b:-0.00000

 -0.19228 = (-0.19229 + -0.19228)/2.0
 sum -  nocc_ = -0.00000000
 ef = -0.19228 sum = 1.00000 

 Iter: 8  T:    20000.000  val:-0.192284  sumni 0.00000
 ne = 1.0000

 iter:9  failiter:9  energy:     -1.699196545415  total:     -1.111221869204  error:      0.000000256873
 In Bisection function HOMO = -0.548  LUMO =  2.948

 1.19994 = (-0.54807 + 2.94796)/2.0
 sum -  nocc_ = 3.42462296
 On Iteration in Bisection 0
 a: 3.42462  b:-0.49999

 0.32594 = (-0.54807 + 1.19994)/2.0
 sum -  nocc_ = 0.97573002
 On Iteration in Bisection 1
 a: 0.97573  b:-0.49999

 -0.11106 = (-0.54807 + 0.32594)/2.0
 sum -  nocc_ = 0.01192323
 On Iteration in Bisection 2
 a: 0.01192  b:-0.49999

 -0.32957 = (-0.54807 + -0.11106)/2.0
 sum -  nocc_ = -0.03035126
 On Iteration in Bisection 3
 a: -0.03035  b:-0.49999

 -0.22032 = (-0.32957 + -0.11106)/2.0
 sum -  nocc_ = -0.00329562
 On Iteration in Bisection 4
 a: -0.00330  b:-0.03035

 -0.16569 = (-0.22032 + -0.11106)/2.0
 sum -  nocc_ = 0.00311689
 On Iteration in Bisection 5
 a: 0.00312  b:-0.00330

 -0.19300 = (-0.22032 + -0.16569)/2.0
 sum -  nocc_ = -0.00008184
 On Iteration in Bisection 6
 a: -0.00008  b:-0.00330

 -0.17935 = (-0.19300 + -0.16569)/2.0
 sum -  nocc_ = 0.00148366
 On Iteration in Bisection 7
 a: 0.00148  b:-0.00008

 -0.18617 = (-0.19300 + -0.17935)/2.0
 sum -  nocc_ = 0.00069694
 On Iteration in Bisection 8
 a: 0.00070  b:-0.00008

 -0.18959 = (-0.19300 + -0.18617)/2.0
 sum -  nocc_ = 0.00030711
 On Iteration in Bisection 9
 a: 0.00031  b:-0.00008

 -0.19130 = (-0.19300 + -0.18959)/2.0
 sum -  nocc_ = 0.00011260
 On Iteration in Bisection 10
 a: 0.00011  b:-0.00008

 -0.19215 = (-0.19300 + -0.19130)/2.0
 sum -  nocc_ = 0.00001538
 On Iteration in Bisection 11
 a: 0.00002  b:-0.00008

 -0.19258 = (-0.19300 + -0.19215)/2.0
 sum -  nocc_ = -0.00003323
 On Iteration in Bisection 12
 a: -0.00003  b:-0.00008

 -0.19236 = (-0.19258 + -0.19215)/2.0
 sum -  nocc_ = -0.00000893
 On Iteration in Bisection 13
 a: -0.00001  b:-0.00003

 -0.19226 = (-0.19236 + -0.19215)/2.0
 sum -  nocc_ = 0.00000322
 On Iteration in Bisection 14
 a: 0.00000  b:-0.00001

 -0.19231 = (-0.19236 + -0.19226)/2.0
 sum -  nocc_ = -0.00000285
 On Iteration in Bisection 15
 a: -0.00000  b:-0.00001

 -0.19228 = (-0.19231 + -0.19226)/2.0
 sum -  nocc_ = 0.00000019
 On Iteration in Bisection 16
 a: 0.00000  b:-0.00000

 -0.19230 = (-0.19231 + -0.19228)/2.0
 sum -  nocc_ = -0.00000133
 On Iteration in Bisection 17
 a: -0.00000  b:-0.00000

 -0.19229 = (-0.19230 + -0.19228)/2.0
 sum -  nocc_ = -0.00000057
 On Iteration in Bisection 18
 a: -0.00000  b:-0.00000

 -0.19229 = (-0.19229 + -0.19228)/2.0
 sum -  nocc_ = -0.00000019
 On Iteration in Bisection 19
 a: -0.00000  b:-0.00000

 -0.19228 = (-0.19229 + -0.19228)/2.0
 sum -  nocc_ = -0.00000000
 ef = -0.19228 sum = 1.00000 

 Iter: 9  T:    20000.000  val:-0.192284  sumni 0.00000
 ne = 1.0000

 iter:10  failiter:10  energy:     -1.699196501535  total:     -1.111221825323  error:      0.000000043881
 In Bisection function HOMO = -0.548  LUMO =  2.948

 1.19994 = (-0.54807 + 2.94796)/2.0
 sum -  nocc_ = 3.42462294
 On Iteration in Bisection 0
 a: 3.42462  b:-0.49999

 0.32594 = (-0.54807 + 1.19994)/2.0
 sum -  nocc_ = 0.97573003
 On Iteration in Bisection 1
 a: 0.97573  b:-0.49999

 -0.11106 = (-0.54807 + 0.32594)/2.0
 sum -  nocc_ = 0.01192323
 On Iteration in Bisection 2
 a: 0.01192  b:-0.49999

 -0.32957 = (-0.54807 + -0.11106)/2.0
 sum -  nocc_ = -0.03035126
 On Iteration in Bisection 3
 a: -0.03035  b:-0.49999

 -0.22032 = (-0.32957 + -0.11106)/2.0
 sum -  nocc_ = -0.00329561
 On Iteration in Bisection 4
 a: -0.00330  b:-0.03035

 -0.16569 = (-0.22032 + -0.11106)/2.0
 sum -  nocc_ = 0.00311689
 On Iteration in Bisection 5
 a: 0.00312  b:-0.00330

 -0.19300 = (-0.22032 + -0.16569)/2.0
 sum -  nocc_ = -0.00008184
 On Iteration in Bisection 6
 a: -0.00008  b:-0.00330

 -0.17935 = (-0.19300 + -0.16569)/2.0
 sum -  nocc_ = 0.00148366
 On Iteration in Bisection 7
 a: 0.00148  b:-0.00008

 -0.18617 = (-0.19300 + -0.17935)/2.0
 sum -  nocc_ = 0.00069694
 On Iteration in Bisection 8
 a: 0.00070  b:-0.00008

 -0.18959 = (-0.19300 + -0.18617)/2.0
 sum -  nocc_ = 0.00030711
 On Iteration in Bisection 9
 a: 0.00031  b:-0.00008

 -0.19130 = (-0.19300 + -0.18959)/2.0
 sum -  nocc_ = 0.00011260
 On Iteration in Bisection 10
 a: 0.00011  b:-0.00008

 -0.19215 = (-0.19300 + -0.19130)/2.0
 sum -  nocc_ = 0.00001538
 On Iteration in Bisection 11
 a: 0.00002  b:-0.00008

 -0.19258 = (-0.19300 + -0.19215)/2.0
 sum -  nocc_ = -0.00003323
 On Iteration in Bisection 12
 a: -0.00003  b:-0.00008

 -0.19236 = (-0.19258 + -0.19215)/2.0
 sum -  nocc_ = -0.00000893
 On Iteration in Bisection 13
 a: -0.00001  b:-0.00003

 -0.19226 = (-0.19236 + -0.19215)/2.0
 sum -  nocc_ = 0.00000323
 On Iteration in Bisection 14
 a: 0.00000  b:-0.00001

 -0.19231 = (-0.19236 + -0.19226)/2.0
 sum -  nocc_ = -0.00000285
 On Iteration in Bisection 15
 a: -0.00000  b:-0.00001

 -0.19228 = (-0.19231 + -0.19226)/2.0
 sum -  nocc_ = 0.00000019
 On Iteration in Bisection 16
 a: 0.00000  b:-0.00000

 -0.19230 = (-0.19231 + -0.19228)/2.0
 sum -  nocc_ = -0.00000133
 On Iteration in Bisection 17
 a: -0.00000  b:-0.00000

 -0.19229 = (-0.19230 + -0.19228)/2.0
 sum -  nocc_ = -0.00000057
 On Iteration in Bisection 18
 a: -0.00000  b:-0.00000

 -0.19229 = (-0.19229 + -0.19228)/2.0
 sum -  nocc_ = -0.00000019
 On Iteration in Bisection 19
 a: -0.00000  b:-0.00000

 -0.19228 = (-0.19229 + -0.19228)/2.0
 sum -  nocc_ = -0.00000000
 ef = -0.19228 sum = 1.00000 

 Iter: 10  T:    20000.000  val:-0.192284  sumni 0.00000
 ne = 1.0000

 iter:11  failiter:11  energy:     -1.699196491327  total:     -1.111221815116  error:      0.000000010207
 In Bisection function HOMO = -0.548  LUMO =  2.948

 1.19994 = (-0.54807 + 2.94796)/2.0
 sum -  nocc_ = 3.42462294
 On Iteration in Bisection 0
 a: 3.42462  b:-0.49999

 0.32594 = (-0.54807 + 1.19994)/2.0
 sum -  nocc_ = 0.97573003
 On Iteration in Bisection 1
 a: 0.97573  b:-0.49999

 -0.11106 = (-0.54807 + 0.32594)/2.0
 sum -  nocc_ = 0.01192323
 On Iteration in Bisection 2
 a: 0.01192  b:-0.49999

 -0.32957 = (-0.54807 + -0.11106)/2.0
 sum -  nocc_ = -0.03035126
 On Iteration in Bisection 3
 a: -0.03035  b:-0.49999

 -0.22032 = (-0.32957 + -0.11106)/2.0
 sum -  nocc_ = -0.00329561
 On Iteration in Bisection 4
 a: -0.00330  b:-0.03035

 -0.16569 = (-0.22032 + -0.11106)/2.0
 sum -  nocc_ = 0.00311689
 On Iteration in Bisection 5
 a: 0.00312  b:-0.00330

 -0.19300 = (-0.22032 + -0.16569)/2.0
 sum -  nocc_ = -0.00008184
 On Iteration in Bisection 6
 a: -0.00008  b:-0.00330

 -0.17935 = (-0.19300 + -0.16569)/2.0
 sum -  nocc_ = 0.00148366
 On Iteration in Bisection 7
 a: 0.00148  b:-0.00008

 -0.18617 = (-0.19300 + -0.17935)/2.0
 sum -  nocc_ = 0.00069694
 On Iteration in Bisection 8
 a: 0.00070  b:-0.00008

 -0.18959 = (-0.19300 + -0.18617)/2.0
 sum -  nocc_ = 0.00030711
 On Iteration in Bisection 9
 a: 0.00031  b:-0.00008

 -0.19130 = (-0.19300 + -0.18959)/2.0
 sum -  nocc_ = 0.00011260
 On Iteration in Bisection 10
 a: 0.00011  b:-0.00008

 -0.19215 = (-0.19300 + -0.19130)/2.0
 sum -  nocc_ = 0.00001538
 On Iteration in Bisection 11
 a: 0.00002  b:-0.00008

 -0.19258 = (-0.19300 + -0.19215)/2.0
 sum -  nocc_ = -0.00003323
 On Iteration in Bisection 12
 a: -0.00003  b:-0.00008

 -0.19236 = (-0.19258 + -0.19215)/2.0
 sum -  nocc_ = -0.00000893
 On Iteration in Bisection 13
 a: -0.00001  b:-0.00003

 -0.19226 = (-0.19236 + -0.19215)/2.0
 sum -  nocc_ = 0.00000323
 On Iteration in Bisection 14
 a: 0.00000  b:-0.00001

 -0.19231 = (-0.19236 + -0.19226)/2.0
 sum -  nocc_ = -0.00000285
 On Iteration in Bisection 15
 a: -0.00000  b:-0.00001

 -0.19228 = (-0.19231 + -0.19226)/2.0
 sum -  nocc_ = 0.00000019
 On Iteration in Bisection 16
 a: 0.00000  b:-0.00000

 -0.19230 = (-0.19231 + -0.19228)/2.0
 sum -  nocc_ = -0.00000133
 On Iteration in Bisection 17
 a: -0.00000  b:-0.00000

 -0.19229 = (-0.19230 + -0.19228)/2.0
 sum -  nocc_ = -0.00000057
 On Iteration in Bisection 18
 a: -0.00000  b:-0.00000

 -0.19229 = (-0.19229 + -0.19228)/2.0
 sum -  nocc_ = -0.00000019
 On Iteration in Bisection 19
 a: -0.00000  b:-0.00000

 -0.19228 = (-0.19229 + -0.19228)/2.0
 sum -  nocc_ = -0.00000000
 ef = -0.19228 sum = 1.00000 

 Iter: 11  T:    20000.000  val:-0.192284  sumni 0.00000
 ne = 1.0000

 iter:12  failiter:12  energy:     -1.699196489367  total:     -1.111221813156  error:      0.000000001960
 In Bisection function HOMO = -0.548  LUMO =  2.948

 1.19994 = (-0.54807 + 2.94796)/2.0
 sum -  nocc_ = 3.42462294
 On Iteration in Bisection 0
 a: 3.42462  b:-0.49999

 0.32594 = (-0.54807 + 1.19994)/2.0
 sum -  nocc_ = 0.97573003
 On Iteration in Bisection 1
 a: 0.97573  b:-0.49999

 -0.11106 = (-0.54807 + 0.32594)/2.0
 sum -  nocc_ = 0.01192323
 On Iteration in Bisection 2
 a: 0.01192  b:-0.49999

 -0.32957 = (-0.54807 + -0.11106)/2.0
 sum -  nocc_ = -0.03035126
 On Iteration in Bisection 3
 a: -0.03035  b:-0.49999

 -0.22032 = (-0.32957 + -0.11106)/2.0
 sum -  nocc_ = -0.00329561
 On Iteration in Bisection 4
 a: -0.00330  b:-0.03035

 -0.16569 = (-0.22032 + -0.11106)/2.0
 sum -  nocc_ = 0.00311689
 On Iteration in Bisection 5
 a: 0.00312  b:-0.00330

 -0.19300 = (-0.22032 + -0.16569)/2.0
 sum -  nocc_ = -0.00008184
 On Iteration in Bisection 6
 a: -0.00008  b:-0.00330

 -0.17935 = (-0.19300 + -0.16569)/2.0
 sum -  nocc_ = 0.00148366
 On Iteration in Bisection 7
 a: 0.00148  b:-0.00008

 -0.18617 = (-0.19300 + -0.17935)/2.0
 sum -  nocc_ = 0.00069694
 On Iteration in Bisection 8
 a: 0.00070  b:-0.00008

 -0.18959 = (-0.19300 + -0.18617)/2.0
 sum -  nocc_ = 0.00030711
 On Iteration in Bisection 9
 a: 0.00031  b:-0.00008

 -0.19130 = (-0.19300 + -0.18959)/2.0
 sum -  nocc_ = 0.00011260
 On Iteration in Bisection 10
 a: 0.00011  b:-0.00008

 -0.19215 = (-0.19300 + -0.19130)/2.0
 sum -  nocc_ = 0.00001538
 On Iteration in Bisection 11
 a: 0.00002  b:-0.00008

 -0.19258 = (-0.19300 + -0.19215)/2.0
 sum -  nocc_ = -0.00003323
 On Iteration in Bisection 12
 a: -0.00003  b:-0.00008

 -0.19236 = (-0.19258 + -0.19215)/2.0
 sum -  nocc_ = -0.00000893
 On Iteration in Bisection 13
 a: -0.00001  b:-0.00003

 -0.19226 = (-0.19236 + -0.19215)/2.0
 sum -  nocc_ = 0.00000323
 On Iteration in Bisection 14
 a: 0.00000  b:-0.00001

 -0.19231 = (-0.19236 + -0.19226)/2.0
 sum -  nocc_ = -0.00000285
 On Iteration in Bisection 15
 a: -0.00000  b:-0.00001

 -0.19228 = (-0.19231 + -0.19226)/2.0
 sum -  nocc_ = 0.00000019
 On Iteration in Bisection 16
 a: 0.00000  b:-0.00000

 -0.19230 = (-0.19231 + -0.19228)/2.0
 sum -  nocc_ = -0.00000133
 On Iteration in Bisection 17
 a: -0.00000  b:-0.00000

 -0.19229 = (-0.19230 + -0.19228)/2.0
 sum -  nocc_ = -0.00000057
 On Iteration in Bisection 18
 a: -0.00000  b:-0.00000

 -0.19229 = (-0.19229 + -0.19228)/2.0
 sum -  nocc_ = -0.00000019
 On Iteration in Bisection 19
 a: -0.00000  b:-0.00000

 -0.19228 = (-0.19229 + -0.19228)/2.0
 sum -  nocc_ = -0.00000000
 ef = -0.19228 sum = 1.00000 

 Iter: 12  T:    20000.000  val:-0.192284  sumni 0.00000
 ne = 1.0000

 iter:13  failiter:13  energy:     -1.699196488995  total:     -1.111221812784  error:      0.000000000373
 In Bisection function HOMO = -0.548  LUMO =  2.948

 1.19994 = (-0.54807 + 2.94796)/2.0
 sum -  nocc_ = 3.42462294
 On Iteration in Bisection 0
 a: 3.42462  b:-0.49999

 0.32594 = (-0.54807 + 1.19994)/2.0
 sum -  nocc_ = 0.97573003
 On Iteration in Bisection 1
 a: 0.97573  b:-0.49999

 -0.11106 = (-0.54807 + 0.32594)/2.0
 sum -  nocc_ = 0.01192323
 On Iteration in Bisection 2
 a: 0.01192  b:-0.49999

 -0.32957 = (-0.54807 + -0.11106)/2.0
 sum -  nocc_ = -0.03035126
 On Iteration in Bisection 3
 a: -0.03035  b:-0.49999

 -0.22032 = (-0.32957 + -0.11106)/2.0
 sum -  nocc_ = -0.00329561
 On Iteration in Bisection 4
 a: -0.00330  b:-0.03035

 -0.16569 = (-0.22032 + -0.11106)/2.0
 sum -  nocc_ = 0.00311689
 On Iteration in Bisection 5
 a: 0.00312  b:-0.00330

 -0.19300 = (-0.22032 + -0.16569)/2.0
 sum -  nocc_ = -0.00008184
 On Iteration in Bisection 6
 a: -0.00008  b:-0.00330

 -0.17935 = (-0.19300 + -0.16569)/2.0
 sum -  nocc_ = 0.00148366
 On Iteration in Bisection 7
 a: 0.00148  b:-0.00008

 -0.18617 = (-0.19300 + -0.17935)/2.0
 sum -  nocc_ = 0.00069694
 On Iteration in Bisection 8
 a: 0.00070  b:-0.00008

 -0.18959 = (-0.19300 + -0.18617)/2.0
 sum -  nocc_ = 0.00030711
 On Iteration in Bisection 9
 a: 0.00031  b:-0.00008

 -0.19130 = (-0.19300 + -0.18959)/2.0
 sum -  nocc_ = 0.00011260
 On Iteration in Bisection 10
 a: 0.00011  b:-0.00008

 -0.19215 = (-0.19300 + -0.19130)/2.0
 sum -  nocc_ = 0.00001538
 On Iteration in Bisection 11
 a: 0.00002  b:-0.00008

 -0.19258 = (-0.19300 + -0.19215)/2.0
 sum -  nocc_ = -0.00003323
 On Iteration in Bisection 12
 a: -0.00003  b:-0.00008

 -0.19236 = (-0.19258 + -0.19215)/2.0
 sum -  nocc_ = -0.00000893
 On Iteration in Bisection 13
 a: -0.00001  b:-0.00003

 -0.19226 = (-0.19236 + -0.19215)/2.0
 sum -  nocc_ = 0.00000323
 On Iteration in Bisection 14
 a: 0.00000  b:-0.00001

 -0.19231 = (-0.19236 + -0.19226)/2.0
 sum -  nocc_ = -0.00000285
 On Iteration in Bisection 15
 a: -0.00000  b:-0.00001

 -0.19228 = (-0.19231 + -0.19226)/2.0
 sum -  nocc_ = 0.00000019
 On Iteration in Bisection 16
 a: 0.00000  b:-0.00000

 -0.19230 = (-0.19231 + -0.19228)/2.0
 sum -  nocc_ = -0.00000133
 On Iteration in Bisection 17
 a: -0.00000  b:-0.00000

 -0.19229 = (-0.19230 + -0.19228)/2.0
 sum -  nocc_ = -0.00000057
 On Iteration in Bisection 18
 a: -0.00000  b:-0.00000

 -0.19229 = (-0.19229 + -0.19228)/2.0
 sum -  nocc_ = -0.00000019
 On Iteration in Bisection 19
 a: -0.00000  b:-0.00000

 -0.19228 = (-0.19229 + -0.19228)/2.0
 sum -  nocc_ = -0.00000000
 ef = -0.19228 sum = 1.00000 

 Iter: 13  T:    20000.000  val:-0.192284  sumni 0.00000
 ne = 1.0000

 iter:14  failiter:14  energy:     -1.699196488924  total:     -1.111221812713  error:      0.000000000071
 In Bisection function HOMO = -0.548  LUMO =  2.948

 1.19994 = (-0.54807 + 2.94796)/2.0
 sum -  nocc_ = 3.42462294
 On Iteration in Bisection 0
 a: 3.42462  b:-0.49999

 0.32594 = (-0.54807 + 1.19994)/2.0
 sum -  nocc_ = 0.97573003
 On Iteration in Bisection 1
 a: 0.97573  b:-0.49999

 -0.11106 = (-0.54807 + 0.32594)/2.0
 sum -  nocc_ = 0.01192323
 On Iteration in Bisection 2
 a: 0.01192  b:-0.49999

 -0.32957 = (-0.54807 + -0.11106)/2.0
 sum -  nocc_ = -0.03035126
 On Iteration in Bisection 3
 a: -0.03035  b:-0.49999

 -0.22032 = (-0.32957 + -0.11106)/2.0
 sum -  nocc_ = -0.00329561
 On Iteration in Bisection 4
 a: -0.00330  b:-0.03035

 -0.16569 = (-0.22032 + -0.11106)/2.0
 sum -  nocc_ = 0.00311689
 On Iteration in Bisection 5
 a: 0.00312  b:-0.00330

 -0.19300 = (-0.22032 + -0.16569)/2.0
 sum -  nocc_ = -0.00008184
 On Iteration in Bisection 6
 a: -0.00008  b:-0.00330

 -0.17935 = (-0.19300 + -0.16569)/2.0
 sum -  nocc_ = 0.00148366
 On Iteration in Bisection 7
 a: 0.00148  b:-0.00008

 -0.18617 = (-0.19300 + -0.17935)/2.0
 sum -  nocc_ = 0.00069694
 On Iteration in Bisection 8
 a: 0.00070  b:-0.00008

 -0.18959 = (-0.19300 + -0.18617)/2.0
 sum -  nocc_ = 0.00030711
 On Iteration in Bisection 9
 a: 0.00031  b:-0.00008

 -0.19130 = (-0.19300 + -0.18959)/2.0
 sum -  nocc_ = 0.00011260
 On Iteration in Bisection 10
 a: 0.00011  b:-0.00008

 -0.19215 = (-0.19300 + -0.19130)/2.0
 sum -  nocc_ = 0.00001538
 On Iteration in Bisection 11
 a: 0.00002  b:-0.00008

 -0.19258 = (-0.19300 + -0.19215)/2.0
 sum -  nocc_ = -0.00003323
 On Iteration in Bisection 12
 a: -0.00003  b:-0.00008

 -0.19236 = (-0.19258 + -0.19215)/2.0
 sum -  nocc_ = -0.00000893
 On Iteration in Bisection 13
 a: -0.00001  b:-0.00003

 -0.19226 = (-0.19236 + -0.19215)/2.0
 sum -  nocc_ = 0.00000323
 On Iteration in Bisection 14
 a: 0.00000  b:-0.00001

 -0.19231 = (-0.19236 + -0.19226)/2.0
 sum -  nocc_ = -0.00000285
 On Iteration in Bisection 15
 a: -0.00000  b:-0.00001

 -0.19228 = (-0.19231 + -0.19226)/2.0
 sum -  nocc_ = 0.00000019
 On Iteration in Bisection 16
 a: 0.00000  b:-0.00000

 -0.19230 = (-0.19231 + -0.19228)/2.0
 sum -  nocc_ = -0.00000133
 On Iteration in Bisection 17
 a: -0.00000  b:-0.00000

 -0.19229 = (-0.19230 + -0.19228)/2.0
 sum -  nocc_ = -0.00000057
 On Iteration in Bisection 18
 a: -0.00000  b:-0.00000

 -0.19229 = (-0.19229 + -0.19228)/2.0
 sum -  nocc_ = -0.00000019
 On Iteration in Bisection 19
 a: -0.00000  b:-0.00000

 -0.19228 = (-0.19229 + -0.19228)/2.0
 sum -  nocc_ = -0.00000000
 ef = -0.19228 sum = 1.00000 

 Iter: 14  T:    20000.000  val:-0.192284  sumni 0.00000
 ne = 1.0000

 iter:15  failiter:15  energy:     -1.699196488910  total:     -1.111221812699  error:      0.000000000014
 In Bisection function HOMO = -0.548  LUMO =  2.948

 1.19994 = (-0.54807 + 2.94796)/2.0
 sum -  nocc_ = 3.42462294
 On Iteration in Bisection 0
 a: 3.42462  b:-0.49999

 0.32594 = (-0.54807 + 1.19994)/2.0
 sum -  nocc_ = 0.97573003
 On Iteration in Bisection 1
 a: 0.97573  b:-0.49999

 -0.11106 = (-0.54807 + 0.32594)/2.0
 sum -  nocc_ = 0.01192323
 On Iteration in Bisection 2
 a: 0.01192  b:-0.49999

 -0.32957 = (-0.54807 + -0.11106)/2.0
 sum -  nocc_ = -0.03035126
 On Iteration in Bisection 3
 a: -0.03035  b:-0.49999

 -0.22032 = (-0.32957 + -0.11106)/2.0
 sum -  nocc_ = -0.00329561
 On Iteration in Bisection 4
 a: -0.00330  b:-0.03035

 -0.16569 = (-0.22032 + -0.11106)/2.0
 sum -  nocc_ = 0.00311689
 On Iteration in Bisection 5
 a: 0.00312  b:-0.00330

 -0.19300 = (-0.22032 + -0.16569)/2.0
 sum -  nocc_ = -0.00008184
 On Iteration in Bisection 6
 a: -0.00008  b:-0.00330

 -0.17935 = (-0.19300 + -0.16569)/2.0
 sum -  nocc_ = 0.00148366
 On Iteration in Bisection 7
 a: 0.00148  b:-0.00008

 -0.18617 = (-0.19300 + -0.17935)/2.0
 sum -  nocc_ = 0.00069694
 On Iteration in Bisection 8
 a: 0.00070  b:-0.00008

 -0.18959 = (-0.19300 + -0.18617)/2.0
 sum -  nocc_ = 0.00030711
 On Iteration in Bisection 9
 a: 0.00031  b:-0.00008

 -0.19130 = (-0.19300 + -0.18959)/2.0
 sum -  nocc_ = 0.00011260
 On Iteration in Bisection 10
 a: 0.00011  b:-0.00008

 -0.19215 = (-0.19300 + -0.19130)/2.0
 sum -  nocc_ = 0.00001538
 On Iteration in Bisection 11
 a: 0.00002  b:-0.00008

 -0.19258 = (-0.19300 + -0.19215)/2.0
 sum -  nocc_ = -0.00003323
 On Iteration in Bisection 12
 a: -0.00003  b:-0.00008

 -0.19236 = (-0.19258 + -0.19215)/2.0
 sum -  nocc_ = -0.00000893
 On Iteration in Bisection 13
 a: -0.00001  b:-0.00003

 -0.19226 = (-0.19236 + -0.19215)/2.0
 sum -  nocc_ = 0.00000323
 On Iteration in Bisection 14
 a: 0.00000  b:-0.00001

 -0.19231 = (-0.19236 + -0.19226)/2.0
 sum -  nocc_ = -0.00000285
 On Iteration in Bisection 15
 a: -0.00000  b:-0.00001

 -0.19228 = (-0.19231 + -0.19226)/2.0
 sum -  nocc_ = 0.00000019
 On Iteration in Bisection 16
 a: 0.00000  b:-0.00000

 -0.19230 = (-0.19231 + -0.19228)/2.0
 sum -  nocc_ = -0.00000133
 On Iteration in Bisection 17
 a: -0.00000  b:-0.00000

 -0.19229 = (-0.19230 + -0.19228)/2.0
 sum -  nocc_ = -0.00000057
 On Iteration in Bisection 18
 a: -0.00000  b:-0.00000

 -0.19229 = (-0.19229 + -0.19228)/2.0
 sum -  nocc_ = -0.00000019
 On Iteration in Bisection 19
 a: -0.00000  b:-0.00000

 -0.19228 = (-0.19229 + -0.19228)/2.0
 sum -  nocc_ = -0.00000000
 ef = -0.19228 sum = 1.00000 

 Iter: 15  T:    20000.000  val:-0.192284  sumni 0.00000
 ne = 1.0000

 iter:16  failiter:16  energy:     -1.699196488908  total:     -1.111221812697  error:      0.000000000003
 In Bisection function HOMO = -0.548  LUMO =  2.948

 1.19994 = (-0.54807 + 2.94796)/2.0
 sum -  nocc_ = 3.42462294
 On Iteration in Bisection 0
 a: 3.42462  b:-0.49999

 0.32594 = (-0.54807 + 1.19994)/2.0
 sum -  nocc_ = 0.97573003
 On Iteration in Bisection 1
 a: 0.97573  b:-0.49999

 -0.11106 = (-0.54807 + 0.32594)/2.0
 sum -  nocc_ = 0.01192323
 On Iteration in Bisection 2
 a: 0.01192  b:-0.49999

 -0.32957 = (-0.54807 + -0.11106)/2.0
 sum -  nocc_ = -0.03035126
 On Iteration in Bisection 3
 a: -0.03035  b:-0.49999

 -0.22032 = (-0.32957 + -0.11106)/2.0
 sum -  nocc_ = -0.00329561
 On Iteration in Bisection 4
 a: -0.00330  b:-0.03035

 -0.16569 = (-0.22032 + -0.11106)/2.0
 sum -  nocc_ = 0.00311689
 On Iteration in Bisection 5
 a: 0.00312  b:-0.00330

 -0.19300 = (-0.22032 + -0.16569)/2.0
 sum -  nocc_ = -0.00008184
 On Iteration in Bisection 6
 a: -0.00008  b:-0.00330

 -0.17935 = (-0.19300 + -0.16569)/2.0
 sum -  nocc_ = 0.00148366
 On Iteration in Bisection 7
 a: 0.00148  b:-0.00008

 -0.18617 = (-0.19300 + -0.17935)/2.0
 sum -  nocc_ = 0.00069694
 On Iteration in Bisection 8
 a: 0.00070  b:-0.00008

 -0.18959 = (-0.19300 + -0.18617)/2.0
 sum -  nocc_ = 0.00030711
 On Iteration in Bisection 9
 a: 0.00031  b:-0.00008

 -0.19130 = (-0.19300 + -0.18959)/2.0
 sum -  nocc_ = 0.00011260
 On Iteration in Bisection 10
 a: 0.00011  b:-0.00008

 -0.19215 = (-0.19300 + -0.19130)/2.0
 sum -  nocc_ = 0.00001538
 On Iteration in Bisection 11
 a: 0.00002  b:-0.00008

 -0.19258 = (-0.19300 + -0.19215)/2.0
 sum -  nocc_ = -0.00003323
 On Iteration in Bisection 12
 a: -0.00003  b:-0.00008

 -0.19236 = (-0.19258 + -0.19215)/2.0
 sum -  nocc_ = -0.00000893
 On Iteration in Bisection 13
 a: -0.00001  b:-0.00003

 -0.19226 = (-0.19236 + -0.19215)/2.0
 sum -  nocc_ = 0.00000323
 On Iteration in Bisection 14
 a: 0.00000  b:-0.00001

 -0.19231 = (-0.19236 + -0.19226)/2.0
 sum -  nocc_ = -0.00000285
 On Iteration in Bisection 15
 a: -0.00000  b:-0.00001

 -0.19228 = (-0.19231 + -0.19226)/2.0
 sum -  nocc_ = 0.00000019
 On Iteration in Bisection 16
 a: 0.00000  b:-0.00000

 -0.19230 = (-0.19231 + -0.19228)/2.0
 sum -  nocc_ = -0.00000133
 On Iteration in Bisection 17
 a: -0.00000  b:-0.00000

 -0.19229 = (-0.19230 + -0.19228)/2.0
 sum -  nocc_ = -0.00000057
 On Iteration in Bisection 18
 a: -0.00000  b:-0.00000

 -0.19229 = (-0.19229 + -0.19228)/2.0
 sum -  nocc_ = -0.00000019
 On Iteration in Bisection 19
 a: -0.00000  b:-0.00000

 -0.19228 = (-0.19229 + -0.19228)/2.0
 sum -  nocc_ = -0.00000000
 ef = -0.19228 sum = 1.00000 

 Iter: 16  T:    20000.000  val:-0.192284  sumni 0.00000
 ne = 1.0000

 iter:17  failiter:17  energy:     -1.699196488907  total:     -1.111221812696  error:      0.000000000000
 FTHFEnergy =    -1.111222
 FD_dis[0] = 0.99638018 with -0.548067 eig value
 FD_dis[1] = 0.00360592 with 0.163744 eig value
 FD_dis[2] = 0.00001382 with 0.516364 eig value
 FD_dis[3] = 0.00000008 with 0.839551 eig value
 FD_dis[4] = 0.00000000 with 1.282357 eig value
 FD_dis[5] = 0.00000000 with 1.282357 eig value
 FD_dis[6] = 0.00000000 with 1.788712 eig value
 FD_dis[7] = 0.00000000 with 1.934891 eig value
 FD_dis[8] = 0.00000000 with 1.934891 eig value
 FD_dis[9] = 0.00000000 with 2.947956 eig value
*** PSI4 exiting successfully. Buy a developer a beer!
