    -----------------------------------------------------------------------
          PSI4: An Open-Source Ab Initio Electronic Structure Package
                              PSI 4.0 Driver

               Git: Rev {master} 556e8139d3cfa1f96ccffe2cdf22cc56a185d2b2

    J. M. Turney, A. C. Simmonett, R. M. Parrish, E. G. Hohenstein,
    F. A. Evangelista, J. T. Fermann, B. J. Mintz, L. A. Burns, J. J. Wilke,
    M. L. Abrams, N. J. Russ, M. L. Leininger, C. L. Janssen, E. T. Seidl,
    W. D. Allen, H. F. Schaefer, R. A. King, E. F. Valeev, C. D. Sherrill,
    and T. D. Crawford, WIREs Comput. Mol. Sci. 2, 556-565 (2012)
    (doi: 10.1002/wcms.93)

                         Additional Contributions by
    A. E. DePrince, M. Saitow, U. Bozkaya, A. Yu. Sokolov
    -----------------------------------------------------------------------

    Process ID:  11949
    PSI4DATADIR: /Users/kevinhannon/Programs/psi4cmake/psi4/lib
    Memory level set to 256.000 MB

  ==> Input File <==

--------------------------------------------------------------------------

# PYTHONPATH must include directory above plugin directory.
#     Define either externally or here, then import plugin.
sys.path.insert(0, '/Users/kevinhannon/Programs/Quantum_Programs/Quantum-Programs/GS/')
import scf

molecule {
0 1
H
H 1 2.40000
symmetry c1
units angstrom
}


set {
  basis cc-pvdz
  reference rhf
  scf_type  pk
}

set scf {
  DO_FTHF true
  MAX_ITER 130
  MAX_TEMP 100
  TEMP_INCREMENT 0
  bisect  true
  bisect_iter  40
}
energy('rhf')

energy('scf')


--------------------------------------------------------------------------

*** tstart() called on Kevins-MacBook-Pro.local
*** at Fri Apr 10 18:02:13 2015

/Users/kevinhannon/Programs/Quantum_Programs/Quantum-Programs/GS/scf/scf.so loaded.

*** tstart() called on Kevins-MacBook-Pro.local
*** at Fri Apr 10 18:02:13 2015


         ---------------------------------------------------------
                                   SCF
            by Justin Turney, Rob Parrish, and Andy Simmonett
                              RHF Reference
                        1 Threads,    256 MiB Core
         ---------------------------------------------------------

  ==> Geometry <==

    Molecular point group: c1
    Full point group: D_inf_h

    Geometry (in Angstrom), charge = 0, multiplicity = 1:

       Center              X                  Y                   Z       
    ------------   -----------------  -----------------  -----------------
           H          0.000000000000     0.000000000000    -1.200000000000
           H          0.000000000000     0.000000000000     1.200000000000

  Running in c1 symmetry.

  Rotational constants: A = ************  B =      5.80790  C =      5.80790 [cm^-1]
  Rotational constants: A = ************  B = 174116.35512  C = 174116.35512 [MHz]
  Nuclear repulsion =    0.220490503579167

  Charge       = 0
  Multiplicity = 1
  Electrons    = 2
  Nalpha       = 1
  Nbeta        = 1

  ==> Algorithm <==

  SCF Algorithm Type is PK.
  DIIS enabled.
  MOM disabled.
  Fractional occupation disabled.
  Guess Type is CORE.
  Energy threshold   = 1.00e-06
  Density threshold  = 1.00e-06
  Integral threshold = 0.00e+00

  ==> Primary Basis <==

  Basis Set: CC-PVDZ
    Number of shells: 6
    Number of basis function: 10
    Number of Cartesian functions: 10
    Spherical Harmonics?: true
    Max angular momentum: 1

  ==> Pre-Iterations <==

   -------------------------------------------------------
    Irrep   Nso     Nmo     Nalpha   Nbeta   Ndocc  Nsocc
   -------------------------------------------------------
     A         10      10       0       0       0       0
   -------------------------------------------------------
    Total      10      10       1       1       1       0
   -------------------------------------------------------

  Starting with a DF guess...

 OEINTS: Overlap, kinetic, potential, dipole, and quadrupole integrals
         stored in file 35.

  ==> Integral Setup <==

  ==> DFJK: Density-Fitted J/K Matrices <==

    J tasked:                  Yes
    K tasked:                  Yes
    wK tasked:                  No
    OpenMP threads:              1
    Integrals threads:           1
    Memory (MB):               183
    Algorithm:                Core
    Integral Cache:           NONE
    Schwarz Cutoff:          1E-12
    Fitting Condition:       1E-12

   => Auxiliary Basis Set <=

  Basis Set: 
    Number of shells: 18
    Number of basis function: 46
    Number of Cartesian functions: 50
    Spherical Harmonics?: true
    Max angular momentum: 2

  Minimum eigenvalue in the overlap matrix is 2.4096393588E-01.
  Using Symmetric Orthogonalization.
  SCF Guess: Core (One-Electron) Hamiltonian.

  ==> Iterations <==

                           Total Energy        Delta E     RMS |[F,P]|

   @DF-RHF iter   1:    -0.85634209219844   -8.56342e-01   1.27624e-02 
   @DF-RHF iter   2:    -0.87447104492781   -1.81290e-02   2.20707e-03 DIIS
   @DF-RHF iter   3:    -0.87504980840066   -5.78763e-04   4.65417e-05 DIIS
   @DF-RHF iter   4:    -0.87505000187381   -1.93473e-07   8.33535e-07 DIIS

  DF guess converged.

  ==> Integral Setup <==

 MINTS: Wrapper to libmints.
   by Justin Turney

   Calculation information:
      Number of atoms:                   2
      Number of AO shells:               6
      Number of SO shells:               6
      Number of primitives:             10
      Number of atomic orbitals:        10
      Number of basis functions:        10

      Number of irreps:                  1
      Integral cutoff                 0.00e+00
      Number of functions per irrep: [  10 ]

 OEINTS: Overlap, kinetic, potential, dipole, and quadrupole integrals
         stored in file 35.

      Computing two-electron integrals...done
      Computed 512 non-zero two-electron integrals.
        Stored in file 33.

	Batch   1 pq = [       0,      55] index = [             0,1540]
  ==> DiskJK: Disk-Based J/K Matrices <==

    J tasked:                  Yes
    K tasked:                  Yes
    wK tasked:                  No
    Memory (MB):               183
    Schwarz Cutoff:          1E-12

   @RHF iter   5:    -0.87503119554233    1.88063e-05   5.81425e-06 DIIS
   @RHF iter   6:    -0.87503119899925   -3.45692e-09   9.70726e-07 DIIS

  ==> Post-Iterations <==

    Orbital Energies (a.u.)
    -----------------------

    Doubly Occupied:                                                      

       1A     -0.355630  

    Virtual:                                                              

       2A     -0.076589     3A      0.633694     4A      0.663988  
       5A      1.442825     6A      1.463122     7A      1.463122  
       8A      1.473843     9A      1.473843    10A      1.545064  

    Final Occupation by Irrep:
              A 
    DOCC [     1 ]

  Energy converged.

  @RHF Final Energy:    -0.87503119899925

   => Energetics <=

    Nuclear Repulsion Energy =              0.2204905035791667
    One-Electron Energy =                  -1.4797816266943906
    Two-Electron Energy =                   0.3842599241159779
    DFT Exchange-Correlation Energy =       0.0000000000000000
    Empirical Dispersion Energy =           0.0000000000000000
    PCM Polarization Energy =               0.0000000000000000
    EFP Energy =                            0.0000000000000000
    Total Energy =                         -0.8750311989992461

    Alert: EFP and PCM quantities not currently incorporated into SCF psivars.

Properties will be evaluated at   0.000000,   0.000000,   0.000000 Bohr
  ==> Properties <==


Properties computed using the SCF density matrix

  Nuclear Dipole Moment: (a.u.)
     X:     0.0000      Y:     0.0000      Z:     0.0000

  Electronic Dipole Moment: (a.u.)
     X:     0.0000      Y:     0.0000      Z:     0.0000

  Dipole Moment: (a.u.)
     X:     0.0000      Y:     0.0000      Z:     0.0000     Total:     0.0000

  Dipole Moment: (Debye)
     X:     0.0000      Y:     0.0000      Z:     0.0000     Total:     0.0000


  Saving occupied orbitals to File 180.

*** tstop() called on Kevins-MacBook-Pro.local at Fri Apr 10 18:02:14 2015
Module time:
	user time   =       0.20 seconds =       0.00 minutes
	system time =       0.01 seconds =       0.00 minutes
	total time  =          1 seconds =       0.02 minutes
Total time:
	user time   =       0.21 seconds =       0.00 minutes
	system time =       0.01 seconds =       0.00 minutes
	total time  =          1 seconds =       0.02 minutes

*** tstart() called on Kevins-MacBook-Pro.local
*** at Fri Apr 10 18:02:14 2015


         ---------------------------------------------------------
                                   SCF
            by Justin Turney, Rob Parrish, and Andy Simmonett
                              RHF Reference
                        1 Threads,    256 MiB Core
         ---------------------------------------------------------

  ==> Geometry <==

    Molecular point group: c1
    Full point group: D_inf_h

    Geometry (in Angstrom), charge = 0, multiplicity = 1:

       Center              X                  Y                   Z       
    ------------   -----------------  -----------------  -----------------
           H          0.000000000000     0.000000000000    -1.200000000000
           H          0.000000000000     0.000000000000     1.200000000000

  Running in c1 symmetry.

  Rotational constants: A = ************  B =      5.80790  C =      5.80790 [cm^-1]
  Rotational constants: A = ************  B = 174116.35512  C = 174116.35512 [MHz]
  Nuclear repulsion =    0.220490503579167

  Charge       = 0
  Multiplicity = 1
  Electrons    = 2
  Nalpha       = 1
  Nbeta        = 1

  ==> Algorithm <==

  SCF Algorithm Type is PK.
  DIIS enabled.
  MOM disabled.
  Fractional occupation disabled.
  Guess Type is CORE.
  Energy threshold   = 1.00e-08
  Density threshold  = 1.00e-08
  Integral threshold = 0.00e+00

  ==> Primary Basis <==

  Basis Set: CC-PVDZ
    Number of shells: 6
    Number of basis function: 10
    Number of Cartesian functions: 10
    Spherical Harmonics?: true
    Max angular momentum: 1

  ==> Pre-Iterations <==

   -------------------------------------------------------
    Irrep   Nso     Nmo     Nalpha   Nbeta   Ndocc  Nsocc
   -------------------------------------------------------
     A         10      10       0       0       0       0
   -------------------------------------------------------
    Total      10      10       1       1       1       0
   -------------------------------------------------------

  Starting with a DF guess...

 OEINTS: Overlap, kinetic, potential, dipole, and quadrupole integrals
         stored in file 35.

  ==> Integral Setup <==

  ==> DFJK: Density-Fitted J/K Matrices <==

    J tasked:                  Yes
    K tasked:                  Yes
    wK tasked:                  No
    OpenMP threads:              1
    Integrals threads:           1
    Memory (MB):               183
    Algorithm:                Core
    Integral Cache:           NONE
    Schwarz Cutoff:          1E-12
    Fitting Condition:       1E-12

   => Auxiliary Basis Set <=

  Basis Set: 
    Number of shells: 18
    Number of basis function: 46
    Number of Cartesian functions: 50
    Spherical Harmonics?: true
    Max angular momentum: 2

  Minimum eigenvalue in the overlap matrix is 2.4096393588E-01.
  Using Symmetric Orthogonalization.
  SCF Guess: Core (One-Electron) Hamiltonian.

  ==> Iterations <==

                           Total Energy        Delta E     RMS |[F,P]|

   @DF-RHF iter   1:    -0.85634209219844   -8.56342e-01   1.27624e-02 
   @DF-RHF iter   2:    -0.87447104492781   -1.81290e-02   2.20707e-03 DIIS
   @DF-RHF iter   3:    -0.87504980840066   -5.78763e-04   4.65417e-05 DIIS
   @DF-RHF iter   4:    -0.87505000187381   -1.93473e-07   8.33535e-07 DIIS
   @DF-RHF iter   5:    -0.87505000192866   -5.48428e-11   2.15940e-10 DIIS

  DF guess converged.

  ==> Integral Setup <==

 MINTS: Wrapper to libmints.
   by Justin Turney

   Calculation information:
      Number of atoms:                   2
      Number of AO shells:               6
      Number of SO shells:               6
      Number of primitives:             10
      Number of atomic orbitals:        10
      Number of basis functions:        10

      Number of irreps:                  1
      Integral cutoff                 0.00e+00
      Number of functions per irrep: [  10 ]

 OEINTS: Overlap, kinetic, potential, dipole, and quadrupole integrals
         stored in file 35.

      Computing two-electron integrals...done
      Computed 512 non-zero two-electron integrals.
        Stored in file 33.

	Batch   1 pq = [       0,      55] index = [             0,1540]
  ==> DiskJK: Disk-Based J/K Matrices <==

    J tasked:                  Yes
    K tasked:                  Yes
    wK tasked:                  No
    Memory (MB):               183
    Schwarz Cutoff:          1E-12

   @RHF iter   6:    -0.87503119554260    1.88064e-05   5.81403e-06 DIIS
   @RHF iter   7:    -0.87503119899925   -3.45666e-09   9.70690e-07 DIIS
   @RHF iter   8:    -0.87503119910603   -1.06774e-10   2.71359e-08 DIIS
   @RHF iter   9:    -0.87503119910610   -6.97220e-14   1.90377e-13 DIIS

  ==> Post-Iterations <==

    Orbital Energies (a.u.)
    -----------------------

    Doubly Occupied:                                                      

       1A     -0.355630  

    Virtual:                                                              

       2A     -0.076589     3A      0.633694     4A      0.663988  
       5A      1.442825     6A      1.463122     7A      1.463122  
       8A      1.473843     9A      1.473843    10A      1.545064  

    Final Occupation by Irrep:
              A 
    DOCC [     1 ]

  Energy converged.

  @RHF Final Energy:    -0.87503119910610

   => Energetics <=

    Nuclear Repulsion Energy =              0.2204905035791667
    One-Electron Energy =                  -1.4797840828815119
    Two-Electron Energy =                   0.3842623801962468
    DFT Exchange-Correlation Energy =       0.0000000000000000
    Empirical Dispersion Energy =           0.0000000000000000
    PCM Polarization Energy =               0.0000000000000000
    EFP Energy =                            0.0000000000000000
    Total Energy =                         -0.8750311991060984

    Alert: EFP and PCM quantities not currently incorporated into SCF psivars.

Properties will be evaluated at   0.000000,   0.000000,   0.000000 Bohr
  ==> Properties <==


Properties computed using the SCF density matrix

  Nuclear Dipole Moment: (a.u.)
     X:     0.0000      Y:     0.0000      Z:     0.0000

  Electronic Dipole Moment: (a.u.)
     X:     0.0000      Y:     0.0000      Z:    -0.0000

  Dipole Moment: (a.u.)
     X:     0.0000      Y:     0.0000      Z:    -0.0000     Total:     0.0000

  Dipole Moment: (Debye)
     X:     0.0000      Y:     0.0000      Z:    -0.0000     Total:     0.0000


  Saving occupied orbitals to File 180.

*** tstop() called on Kevins-MacBook-Pro.local at Fri Apr 10 18:02:14 2015
Module time:
	user time   =       0.19 seconds =       0.00 minutes
	system time =       0.01 seconds =       0.00 minutes
	total time  =          0 seconds =       0.00 minutes
Total time:
	user time   =       0.41 seconds =       0.01 minutes
	system time =       0.02 seconds =       0.00 minutes
	total time  =          1 seconds =       0.02 minutes
Reading options from the SCF block
Calling plugin scf.so.
    Molecular point group: c1
    Full point group: D_inf_h

    Geometry (in Angstrom), charge = 0, multiplicity = 1:

       Center              X                  Y                   Z       
    ------------   -----------------  -----------------  -----------------
           H          0.000000000000     0.000000000000    -1.200000000000
           H          0.000000000000     0.000000000000     1.200000000000


    Nuclear repulsion energy:       0.22049050

  ## Overlap (Symmetry 0) ##
  Irrep: 1 Size: 10 x 10

                 1                   2                   3                   4                   5

    1     1.00000000000000     0.68486025149275     0.00000000000000     0.00000000000000     0.00000000000000
    2     0.68486025149275     1.00000000000000     0.00000000000000     0.00000000000000     0.00000000000000
    3     0.00000000000000     0.00000000000000     1.00000000000000     0.00000000000000     0.00000000000000
    4     0.00000000000000     0.00000000000000     0.00000000000000     1.00000000000000     0.00000000000000
    5     0.00000000000000     0.00000000000000     0.00000000000000     0.00000000000000     1.00000000000000
    6     0.00699299896276     0.09200396105549     0.00785559771765     0.00000000000000     0.00000000000000
    7     0.09200396105549     0.28515301493963     0.07616026565918     0.00000000000000     0.00000000000000
    8    -0.00785559771765    -0.07616026565918    -0.00789762402091     0.00000000000000     0.00000000000000
    9     0.00000000000000     0.00000000000000     0.00000000000000     0.00056597946822     0.00000000000000
   10     0.00000000000000     0.00000000000000     0.00000000000000     0.00000000000000     0.00056597946822

                 6                   7                   8                   9                  10

    1     0.00699299896276     0.09200396105549    -0.00785559771765     0.00000000000000     0.00000000000000
    2     0.09200396105549     0.28515301493963    -0.07616026565918     0.00000000000000     0.00000000000000
    3     0.00785559771765     0.07616026565918    -0.00789762402091     0.00000000000000     0.00000000000000
    4     0.00000000000000     0.00000000000000     0.00000000000000     0.00056597946822     0.00000000000000
    5     0.00000000000000     0.00000000000000     0.00000000000000     0.00000000000000     0.00056597946822
    6     1.00000000000000     0.68486025149275    -0.00000000000000     0.00000000000000     0.00000000000000
    7     0.68486025149275     1.00000000000000     0.00000000000000     0.00000000000000     0.00000000000000
    8    -0.00000000000000     0.00000000000000     1.00000000000000     0.00000000000000     0.00000000000000
    9     0.00000000000000     0.00000000000000     0.00000000000000     1.00000000000000     0.00000000000000
   10     0.00000000000000     0.00000000000000     0.00000000000000     0.00000000000000     1.00000000000000



  ## Kinetic (Symmetry 0) ##
  Irrep: 1 Size: 10 x 10

                 1                   2                   3                   4                   5

    1     0.96945722711242     0.20123413106538     0.00000000000000     0.00000000000000     0.00000000000000
    2     0.20123413106538     0.18300000000000     0.00000000000000     0.00000000000000     0.00000000000000
    3     0.00000000000000     0.00000000000000     1.81750000000000     0.00000000000000     0.00000000000000
    4     0.00000000000000     0.00000000000000     0.00000000000000     1.81750000000000     0.00000000000000
    5     0.00000000000000     0.00000000000000     0.00000000000000     0.00000000000000     1.81750000000000
    6    -0.01000705920776    -0.00906921732098    -0.01390665708516     0.00000000000000     0.00000000000000
    7    -0.00906921732098     0.00853263922986     0.00558770614216     0.00000000000000     0.00000000000000
    8     0.01390665708516    -0.00558770614216     0.02242249615126     0.00000000000000     0.00000000000000
    9     0.00000000000000     0.00000000000000     0.00000000000000    -0.00204785218481     0.00000000000000
   10     0.00000000000000     0.00000000000000     0.00000000000000     0.00000000000000    -0.00204785218481

                 6                   7                   8                   9                  10

    1    -0.01000705920776    -0.00906921732098     0.01390665708516     0.00000000000000     0.00000000000000
    2    -0.00906921732098     0.00853263922986    -0.00558770614216     0.00000000000000     0.00000000000000
    3    -0.01390665708516     0.00558770614216     0.02242249615126     0.00000000000000     0.00000000000000
    4     0.00000000000000     0.00000000000000     0.00000000000000    -0.00204785218481     0.00000000000000
    5     0.00000000000000     0.00000000000000     0.00000000000000     0.00000000000000    -0.00204785218481
    6     0.96945722711242     0.20123413106538    -0.00000000000000     0.00000000000000     0.00000000000000
    7     0.20123413106538     0.18300000000000     0.00000000000000     0.00000000000000     0.00000000000000
    8    -0.00000000000000     0.00000000000000     1.81750000000000     0.00000000000000     0.00000000000000
    9     0.00000000000000     0.00000000000000     0.00000000000000     1.81750000000000     0.00000000000000
   10     0.00000000000000     0.00000000000000     0.00000000000000     0.00000000000000     1.81750000000000



  ## Potential (Symmetry 0) ##
  Irrep: 1 Size: 10 x 10

                 1                   2                   3                   4                   5

    1    -1.59835228805460    -0.80071220294873    -0.03058557400639     0.00000000000000     0.00000000000000
    2    -0.80071220294873    -0.77753055716731    -0.02869084758343     0.00000000000000     0.00000000000000
    3    -0.03058557400639    -0.02869084758343    -1.13494370277091     0.00000000000000     0.00000000000000
    4     0.00000000000000     0.00000000000000     0.00000000000000    -1.12388519517520     0.00000000000000
    5     0.00000000000000     0.00000000000000     0.00000000000000     0.00000000000000    -1.12388519517520
    6    -0.00623375394698    -0.09830656450507    -0.00695938192131     0.00000000000000     0.00000000000000
    7    -0.09830656450507    -0.22303384568720    -0.07343134049930     0.00000000000000     0.00000000000000
    8     0.00695938192131     0.07343134049930     0.00689887118163     0.00000000000000     0.00000000000000
    9     0.00000000000000     0.00000000000000     0.00000000000000    -0.00046579863104     0.00000000000000
   10     0.00000000000000     0.00000000000000     0.00000000000000     0.00000000000000    -0.00046579863104

                 6                   7                   8                   9                  10

    1    -0.00623375394698    -0.09830656450507     0.00695938192131     0.00000000000000     0.00000000000000
    2    -0.09830656450507    -0.22303384568720     0.07343134049930     0.00000000000000     0.00000000000000
    3    -0.00695938192131    -0.07343134049930     0.00689887118163     0.00000000000000     0.00000000000000
    4     0.00000000000000     0.00000000000000     0.00000000000000    -0.00046579863104     0.00000000000000
    5     0.00000000000000     0.00000000000000     0.00000000000000     0.00000000000000    -0.00046579863104
    6    -1.59835228805460    -0.80071220294873     0.03058557400639     0.00000000000000     0.00000000000000
    7    -0.80071220294873    -0.77753055716731     0.02869084758343     0.00000000000000     0.00000000000000
    8     0.03058557400639     0.02869084758343    -1.13494370277091     0.00000000000000     0.00000000000000
    9     0.00000000000000     0.00000000000000     0.00000000000000    -1.12388519517520     0.00000000000000
   10     0.00000000000000     0.00000000000000     0.00000000000000     0.00000000000000    -1.12388519517520



  ## One Electron Ints (Symmetry 0) ##
  Irrep: 1 Size: 10 x 10

                 1                   2                   3                   4                   5

    1    -0.62889506094217    -0.59947807188334    -0.03058557400639     0.00000000000000     0.00000000000000
    2    -0.59947807188334    -0.59453055716731    -0.02869084758343     0.00000000000000     0.00000000000000
    3    -0.03058557400639    -0.02869084758343     0.68255629722909     0.00000000000000     0.00000000000000
    4     0.00000000000000     0.00000000000000     0.00000000000000     0.69361480482480     0.00000000000000
    5     0.00000000000000     0.00000000000000     0.00000000000000     0.00000000000000     0.69361480482480
    6    -0.01624081315474    -0.10737578182605    -0.02086603900647     0.00000000000000     0.00000000000000
    7    -0.10737578182605    -0.21450120645734    -0.06784363435714     0.00000000000000     0.00000000000000
    8     0.02086603900647     0.06784363435714     0.02932136733289     0.00000000000000     0.00000000000000
    9     0.00000000000000     0.00000000000000     0.00000000000000    -0.00251365081584     0.00000000000000
   10     0.00000000000000     0.00000000000000     0.00000000000000     0.00000000000000    -0.00251365081584

                 6                   7                   8                   9                  10

    1    -0.01624081315474    -0.10737578182605     0.02086603900647     0.00000000000000     0.00000000000000
    2    -0.10737578182605    -0.21450120645734     0.06784363435714     0.00000000000000     0.00000000000000
    3    -0.02086603900647    -0.06784363435714     0.02932136733289     0.00000000000000     0.00000000000000
    4     0.00000000000000     0.00000000000000     0.00000000000000    -0.00251365081584     0.00000000000000
    5     0.00000000000000     0.00000000000000     0.00000000000000     0.00000000000000    -0.00251365081584
    6    -0.62889506094217    -0.59947807188334     0.03058557400639     0.00000000000000     0.00000000000000
    7    -0.59947807188334    -0.59453055716731     0.02869084758343     0.00000000000000     0.00000000000000
    8     0.03058557400639     0.02869084758343     0.68255629722909     0.00000000000000     0.00000000000000
    9     0.00000000000000     0.00000000000000     0.00000000000000     0.69361480482480     0.00000000000000
   10     0.00000000000000     0.00000000000000     0.00000000000000     0.00000000000000     0.69361480482480




	There are 0 unique integrals

  ## Fock (Symmetry 0) ##
  Irrep: 1 Size: 10 x 10

                 1                   2                   3                   4                   5

    1    -0.39426624668425    -0.35617020220805    -0.03301605250541     0.00000000000000     0.00000000000000
    2    -0.35617020220805    -0.31288651954331     0.00611923550047    -0.00000000000000     0.00000000000000
    3    -0.03301605250541     0.00611923550047     0.69320114235470    -0.00000000000000     0.00000000000000
    4     0.00000000000000    -0.00000000000000    -0.00000000000000     0.69361644968762     0.00000000000000
    5     0.00000000000000     0.00000000000000     0.00000000000000     0.00000000000000     0.69361644968763
    6     0.00880234564399     0.00273944884666     0.03898387245861     0.00000000000000     0.00000000000000
    7     0.00273944884666    -0.08464032369008    -0.10385773482510     0.00000000000000     0.00000000000000
    8    -0.03898387245861     0.10385773482510     0.03634991703149    -0.00000000000000     0.00000000000000
    9    -0.00000000000000     0.00000000000000     0.00000000000000    -0.00290622348519     0.00000000000000
   10     0.00000000000000     0.00000000000000     0.00000000000000     0.00000000000000    -0.00290622348519

                 6                   7                   8                   9                  10

    1     0.00880234564399     0.00273944884666    -0.03898387245861    -0.00000000000000     0.00000000000000
    2     0.00273944884666    -0.08464032369008     0.10385773482510     0.00000000000000     0.00000000000000
    3     0.03898387245861    -0.10385773482510     0.03634991703149     0.00000000000000     0.00000000000000
    4     0.00000000000000     0.00000000000000    -0.00000000000000    -0.00290622348519     0.00000000000000
    5     0.00000000000000     0.00000000000000     0.00000000000000     0.00000000000000    -0.00290622348519
    6    -0.39426624668425    -0.35617020220805     0.03301605250541    -0.00000000000000     0.00000000000000
    7    -0.35617020220805    -0.31288651954331    -0.00611923550047     0.00000000000000     0.00000000000000
    8     0.03301605250541    -0.00611923550047     0.69320114235471     0.00000000000000     0.00000000000000
    9    -0.00000000000000     0.00000000000000     0.00000000000000     0.69361644968763     0.00000000000000
   10     0.00000000000000     0.00000000000000     0.00000000000000     0.00000000000000     0.69361644968763



  ## C (Symmetry 0) ##
  Irrep: 1 Size: 10 x 10

                 1                   2                   3                   4                   5

    1     0.92938456426897     0.87993491225310     0.03921525554098     0.02156207548546    -0.04022266939908
    2    -1.01319079264882    -0.84819040184085    -0.00876482423687    -0.08085666650550     0.16052242370329
    3    -0.51799699279060     0.48154495153941     0.07243065717216    -0.02219661337100     0.04063399710642
    4    -0.43103367152574     0.54527375452149    -0.12994855430476     0.00000000000000     0.00020010400006
    5     0.02886480701855    -0.07408929167388     0.70242937564224     0.00000000000000     0.00000000000000
    6    -0.04697695464325    -0.01396534983010     0.00211103750029    -0.91217892679870     0.37391267632318
    7     0.18320157005862     0.10007879235734    -0.00357512798864     0.38387646200062    -0.94917842050249
    8    -0.04744836635417    -0.03618294795177    -0.00019450829197    -0.71255464870197     0.00996378567741
    9     0.00012197811387    -0.00015430688717     0.00003677410978     0.00000000000000    -0.70710686612762
   10    -0.07599675725201     0.10559320773550     0.69484098566320    -0.00000000000000     0.00000000000000

                 6                   7                   8                   9                  10

    1     0.34203379775724     0.41709069560555    -0.04530346173358    -0.01593017850770    -0.04022266939908
    2     0.47780084294011     0.32674099341499     0.02421975343158     0.00041132770735     0.16052242370329
    3    -0.50234564549600     0.49387852798313    -0.07226842255027    -0.01529564062215     0.04063399710642
    4     0.43103367152574    -0.54527375452149    -0.12994855430476     0.00000000000000    -0.00020010400006
    5     0.02882179903058    -0.07402953994337    -0.70282275394239    -0.00000000000000     0.00000000000000
    6     0.01620575404427     0.03582389532884    -0.00145611478591    -0.90603054675794     0.37391267632318
    7    -0.06895080287393    -0.09862234873235     0.00096143319859     0.36394889064573    -0.94917842050249
    8     0.01638046550459     0.01411545526076     0.00085612842008     0.70640626866147     0.00996378567741
    9    -0.00012197811387     0.00015430688717     0.00003677410978     0.00000000000000     0.70710686612762
   10     0.07598043253339    -0.10555129162337     0.69523865762156     0.00000000000000     0.00000000000000




 In Bisection function HOMO = -0.748  LUMO =  0.754

 0.00304 = (-0.74805 + 0.75413)/2.0
 sum -  nocc_ = 2.00000000
 On Iteration in Bisection 0
 a: 2.00000  b:-0.50000

 -0.37250 = (-0.74805 + 0.00304)/2.0
 sum -  nocc_ = 1.00000000
 On Iteration in Bisection 1
 a: 1.00000  b:-0.50000

 -0.56028 = (-0.74805 + -0.37250)/2.0
 sum -  nocc_ = 1.00000000
 On Iteration in Bisection 2
 a: 1.00000  b:-0.50000

 -0.65416 = (-0.74805 + -0.56028)/2.0
 sum -  nocc_ = 1.00000000
 On Iteration in Bisection 3
 a: 1.00000  b:-0.50000

 -0.70111 = (-0.74805 + -0.65416)/2.0
 sum -  nocc_ = 0.00000000
 ef = -0.70111 sum = 1.00000 

 Iter: 0  T:      100.000  val:-0.701106  sumni 0.00000
 ne = 1.0000

Nuc Replusion =       0.220490503579
 1st iteration =       0.667594343786
 In Bisection function HOMO = -0.294  LUMO =  1.853

 0.77957 = (-0.29421 + 1.85334)/2.0
 sum -  nocc_ = 3.00000000
 On Iteration in Bisection 0
 a: 3.00000  b:-0.50000

 0.24268 = (-0.29421 + 0.77957)/2.0
 sum -  nocc_ = 1.00000000
 On Iteration in Bisection 1
 a: 1.00000  b:-0.50000

 -0.02576 = (-0.29421 + 0.24268)/2.0
 sum -  nocc_ = 0.00000000
 ef = -0.02576 sum = 1.00000 

 Iter: 0  T:      100.000  val:-0.025765  sumni 0.00000
 ne = 1.0000

 iter:1  failiter:1  energy:     -1.011955792673  total:     -0.791465289093  error:     -0.136924593566
 In Bisection function HOMO = -0.296  LUMO =  1.892

 0.79778 = (-0.29647 + 1.89203)/2.0
 sum -  nocc_ = 2.00000000
 On Iteration in Bisection 0
 a: 2.00000  b:-0.50000

 0.25065 = (-0.29647 + 0.79778)/2.0
 sum -  nocc_ = 1.00000000
 On Iteration in Bisection 1
 a: 1.00000  b:-0.50000

 -0.02291 = (-0.29647 + 0.25065)/2.0
 sum -  nocc_ = 1.00000000
 On Iteration in Bisection 2
 a: 1.00000  b:-0.50000

 -0.15969 = (-0.29647 + -0.02291)/2.0
 sum -  nocc_ = 0.00000000
 ef = -0.15969 sum = 1.00000 

 Iter: 1  T:      100.000  val:-0.159693  sumni 0.00000
 ne = 1.0000

 iter:2  failiter:2  energy:     -1.024858636372  total:     -0.804368132793  error:     -0.012902843699
 In Bisection function HOMO = -0.313  LUMO =  1.849

 0.76783 = (-0.31324 + 1.84889)/2.0
 sum -  nocc_ = 2.00000000
 On Iteration in Bisection 0
 a: 2.00000  b:-0.50000

 0.22729 = (-0.31324 + 0.76783)/2.0
 sum -  nocc_ = 1.00000000
 On Iteration in Bisection 1
 a: 1.00000  b:-0.50000

 -0.04297 = (-0.31324 + 0.22729)/2.0
 sum -  nocc_ = 1.00000000
 On Iteration in Bisection 2
 a: 1.00000  b:-0.50000

 -0.17810 = (-0.31324 + -0.04297)/2.0
 sum -  nocc_ = 0.00000000
 ef = -0.17810 sum = 1.00000 

 Iter: 2  T:      100.000  val:-0.178104  sumni 0.00000
 ne = 1.0000

 iter:3  failiter:3  energy:     -1.049725773139  total:     -0.829235269560  error:     -0.024867136767
 In Bisection function HOMO = -0.331  LUMO =  1.760

 0.71467 = (-0.33076 + 1.76010)/2.0
 sum -  nocc_ = 2.00000000
 On Iteration in Bisection 0
 a: 2.00000  b:-0.50000

 0.19195 = (-0.33076 + 0.71467)/2.0
 sum -  nocc_ = 1.00000000
 On Iteration in Bisection 1
 a: 1.00000  b:-0.50000

 -0.06940 = (-0.33076 + 0.19195)/2.0
 sum -  nocc_ = 1.00000000
 On Iteration in Bisection 2
 a: 1.00000  b:-0.50000

 -0.20008 = (-0.33076 + -0.06940)/2.0
 sum -  nocc_ = 0.00000000
 ef = -0.20008 sum = 1.00000 

 Iter: 3  T:      100.000  val:-0.200084  sumni 0.00000
 ne = 1.0000

 iter:4  failiter:4  energy:     -1.070648015987  total:     -0.850157512408  error:     -0.020922242848
 In Bisection function HOMO = -0.345  LUMO =  1.664

 0.65967 = (-0.34465 + 1.66400)/2.0
 sum -  nocc_ = 2.00000000
 On Iteration in Bisection 0
 a: 2.00000  b:-0.50000

 0.15751 = (-0.34465 + 0.65967)/2.0
 sum -  nocc_ = 1.00000000
 On Iteration in Bisection 1
 a: 1.00000  b:-0.50000

 -0.09357 = (-0.34465 + 0.15751)/2.0
 sum -  nocc_ = 0.00000000
 ef = -0.09357 sum = 1.00000 

 Iter: 4  T:      100.000  val:-0.093573  sumni 0.00000
 ne = 1.0000

 iter:5  failiter:5  energy:     -1.085031462341  total:     -0.864540958762  error:     -0.014383446354
 In Bisection function HOMO = -0.352  LUMO =  1.596

 0.62222 = (-0.35181 + 1.59625)/2.0
 sum -  nocc_ = 2.00000000
 On Iteration in Bisection 0
 a: 2.00000  b:-0.50000

 0.13521 = (-0.35181 + 0.62222)/2.0
 sum -  nocc_ = 1.00000000
 On Iteration in Bisection 1
 a: 1.00000  b:-0.50000

 -0.10830 = (-0.35181 + 0.13521)/2.0
 sum -  nocc_ = 0.00000000
 ef = -0.10830 sum = 1.00000 

 Iter: 5  T:      100.000  val:-0.108299  sumni 0.00000
 ne = 1.0000

 iter:6  failiter:6  energy:     -1.091961181485  total:     -0.871470677906  error:     -0.006929719143
 In Bisection function HOMO = -0.354  LUMO =  1.562

 0.60399 = (-0.35447 + 1.56246)/2.0
 sum -  nocc_ = 1.00000000
 On Iteration in Bisection 0
 a: 1.00000  b:-0.50000

 0.12476 = (-0.35447 + 0.60399)/2.0
 sum -  nocc_ = 1.00000000
 On Iteration in Bisection 1
 a: 1.00000  b:-0.50000

 -0.11486 = (-0.35447 + 0.12476)/2.0
 sum -  nocc_ = 0.00000000
 ef = -0.11486 sum = 1.00000 

 Iter: 6  T:      100.000  val:-0.114856  sumni 0.00000
 ne = 1.0000

 iter:7  failiter:7  energy:     -1.094462743058  total:     -0.873972239479  error:     -0.002501561573
 In Bisection function HOMO = -0.355  LUMO =  1.550

 0.59736 = (-0.35530 + 1.55003)/2.0
 sum -  nocc_ = 1.00000000
 On Iteration in Bisection 0
 a: 1.00000  b:-0.50000

 0.12103 = (-0.35530 + 0.59736)/2.0
 sum -  nocc_ = 1.00000000
 On Iteration in Bisection 1
 a: 1.00000  b:-0.50000

 -0.11714 = (-0.35530 + 0.12103)/2.0
 sum -  nocc_ = 0.00000000
 ef = -0.11714 sum = 1.00000 

 Iter: 7  T:      100.000  val:-0.117138  sumni 0.00000
 ne = 1.0000

 iter:8  failiter:8  energy:     -1.095227157935  total:     -0.874736654356  error:     -0.000764414877
 In Bisection function HOMO = -0.356  LUMO =  1.546

 0.59541 = (-0.35554 + 1.54637)/2.0
 sum -  nocc_ = 1.00000000
 On Iteration in Bisection 0
 a: 1.00000  b:-0.50000

 0.11994 = (-0.35554 + 0.59541)/2.0
 sum -  nocc_ = 1.00000000
 On Iteration in Bisection 1
 a: 1.00000  b:-0.50000

 -0.11780 = (-0.35554 + 0.11994)/2.0
 sum -  nocc_ = 0.00000000
 ef = -0.11780 sum = 1.00000 

 Iter: 8  T:      100.000  val:-0.117803  sumni 0.00000
 ne = 1.0000

 iter:9  failiter:9  energy:     -1.095442624916  total:     -0.874952121337  error:     -0.000215466981
 In Bisection function HOMO = -0.356  LUMO =  1.545

 0.59490 = (-0.35561 + 1.54540)/2.0
 sum -  nocc_ = 1.00000000
 On Iteration in Bisection 0
 a: 1.00000  b:-0.50000

 0.11964 = (-0.35561 + 0.59490)/2.0
 sum -  nocc_ = 1.00000000
 On Iteration in Bisection 1
 a: 1.00000  b:-0.50000

 -0.11798 = (-0.35561 + 0.11964)/2.0
 sum -  nocc_ = 0.00000000
 ef = -0.11798 sum = 1.00000 

 Iter: 9  T:      100.000  val:-0.117981  sumni 0.00000
 ne = 1.0000

 iter:10  failiter:10  energy:     -1.095500914926  total:     -0.875010411346  error:     -0.000058290009
 In Bisection function HOMO = -0.356  LUMO =  1.545

 0.59476 = (-0.35562 + 1.54515)/2.0
 sum -  nocc_ = 1.00000000
 On Iteration in Bisection 0
 a: 1.00000  b:-0.50000

 0.11957 = (-0.35562 + 0.59476)/2.0
 sum -  nocc_ = 1.00000000
 On Iteration in Bisection 1
 a: 1.00000  b:-0.50000

 -0.11803 = (-0.35562 + 0.11957)/2.0
 sum -  nocc_ = 0.00000000
 ef = -0.11803 sum = 1.00000 

 Iter: 10  T:      100.000  val:-0.118027  sumni 0.00000
 ne = 1.0000

 iter:11  failiter:11  energy:     -1.095516313063  total:     -0.875025809483  error:     -0.000015398137
 In Bisection function HOMO = -0.356  LUMO =  1.545

 0.59473 = (-0.35563 + 1.54509)/2.0
 sum -  nocc_ = 1.00000000
 On Iteration in Bisection 0
 a: 1.00000  b:-0.50000

 0.11955 = (-0.35563 + 0.59473)/2.0
 sum -  nocc_ = 1.00000000
 On Iteration in Bisection 1
 a: 1.00000  b:-0.50000

 -0.11804 = (-0.35563 + 0.11955)/2.0
 sum -  nocc_ = 0.00000000
 ef = -0.11804 sum = 1.00000 

 Iter: 11  T:      100.000  val:-0.118039  sumni 0.00000
 ne = 1.0000

 iter:12  failiter:12  energy:     -1.095520318531  total:     -0.875029814952  error:     -0.000004005469
 In Bisection function HOMO = -0.356  LUMO =  1.545

 0.59472 = (-0.35563 + 1.54507)/2.0
 sum -  nocc_ = 1.00000000
 On Iteration in Bisection 0
 a: 1.00000  b:-0.50000

 0.11955 = (-0.35563 + 0.59472)/2.0
 sum -  nocc_ = 1.00000000
 On Iteration in Bisection 1
 a: 1.00000  b:-0.50000

 -0.11804 = (-0.35563 + 0.11955)/2.0
 sum -  nocc_ = 0.00000000
 ef = -0.11804 sum = 1.00000 

 Iter: 12  T:      100.000  val:-0.118042  sumni 0.00000
 ne = 1.0000

 iter:13  failiter:13  energy:     -1.095521349578  total:     -0.875030845999  error:     -0.000001031047
 In Bisection function HOMO = -0.356  LUMO =  1.545

 0.59472 = (-0.35563 + 1.54507)/2.0
 sum -  nocc_ = 1.00000000
 On Iteration in Bisection 0
 a: 1.00000  b:-0.50000

 0.11954 = (-0.35563 + 0.59472)/2.0
 sum -  nocc_ = 1.00000000
 On Iteration in Bisection 1
 a: 1.00000  b:-0.50000

 -0.11804 = (-0.35563 + 0.11954)/2.0
 sum -  nocc_ = 0.00000000
 ef = -0.11804 sum = 1.00000 

 Iter: 13  T:      100.000  val:-0.118043  sumni 0.00000
 ne = 1.0000

 iter:14  failiter:14  energy:     -1.095521613033  total:     -0.875031109454  error:     -0.000000263455
 In Bisection function HOMO = -0.356  LUMO =  1.545

 0.59472 = (-0.35563 + 1.54506)/2.0
 sum -  nocc_ = 1.00000000
 On Iteration in Bisection 0
 a: 1.00000  b:-0.50000

 0.11954 = (-0.35563 + 0.59472)/2.0
 sum -  nocc_ = 1.00000000
 On Iteration in Bisection 1
 a: 1.00000  b:-0.50000

 -0.11804 = (-0.35563 + 0.11954)/2.0
 sum -  nocc_ = 0.00000000
 ef = -0.11804 sum = 1.00000 

 Iter: 14  T:      100.000  val:-0.118043  sumni 0.00000
 ne = 1.0000

 iter:15  failiter:15  energy:     -1.095521680000  total:     -0.875031176421  error:     -0.000000066968
 In Bisection function HOMO = -0.356  LUMO =  1.545

 0.59472 = (-0.35563 + 1.54506)/2.0
 sum -  nocc_ = 1.00000000
 On Iteration in Bisection 0
 a: 1.00000  b:-0.50000

 0.11954 = (-0.35563 + 0.59472)/2.0
 sum -  nocc_ = 1.00000000
 On Iteration in Bisection 1
 a: 1.00000  b:-0.50000

 -0.11804 = (-0.35563 + 0.11954)/2.0
 sum -  nocc_ = 0.00000000
 ef = -0.11804 sum = 1.00000 

 Iter: 15  T:      100.000  val:-0.118043  sumni 0.00000
 ne = 1.0000

 iter:16  failiter:16  energy:     -1.095521696959  total:     -0.875031193380  error:     -0.000000016959
 In Bisection function HOMO = -0.356  LUMO =  1.545

 0.59472 = (-0.35563 + 1.54506)/2.0
 sum -  nocc_ = 1.00000000
 On Iteration in Bisection 0
 a: 1.00000  b:-0.50000

 0.11954 = (-0.35563 + 0.59472)/2.0
 sum -  nocc_ = 1.00000000
 On Iteration in Bisection 1
 a: 1.00000  b:-0.50000

 -0.11804 = (-0.35563 + 0.11954)/2.0
 sum -  nocc_ = 0.00000000
 ef = -0.11804 sum = 1.00000 

 Iter: 16  T:      100.000  val:-0.118043  sumni 0.00000
 ne = 1.0000

 iter:17  failiter:17  energy:     -1.095521701243  total:     -0.875031197663  error:     -0.000000004283
 In Bisection function HOMO = -0.356  LUMO =  1.545

 0.59472 = (-0.35563 + 1.54506)/2.0
 sum -  nocc_ = 1.00000000
 On Iteration in Bisection 0
 a: 1.00000  b:-0.50000

 0.11954 = (-0.35563 + 0.59472)/2.0
 sum -  nocc_ = 1.00000000
 On Iteration in Bisection 1
 a: 1.00000  b:-0.50000

 -0.11804 = (-0.35563 + 0.11954)/2.0
 sum -  nocc_ = 0.00000000
 ef = -0.11804 sum = 1.00000 

 Iter: 17  T:      100.000  val:-0.118043  sumni 0.00000
 ne = 1.0000

 iter:18  failiter:18  energy:     -1.095521702322  total:     -0.875031198743  error:     -0.000000001080
 In Bisection function HOMO = -0.356  LUMO =  1.545

 0.59472 = (-0.35563 + 1.54506)/2.0
 sum -  nocc_ = 1.00000000
 On Iteration in Bisection 0
 a: 1.00000  b:-0.50000

 0.11954 = (-0.35563 + 0.59472)/2.0
 sum -  nocc_ = 1.00000000
 On Iteration in Bisection 1
 a: 1.00000  b:-0.50000

 -0.11804 = (-0.35563 + 0.11954)/2.0
 sum -  nocc_ = 0.00000000
 ef = -0.11804 sum = 1.00000 

 Iter: 18  T:      100.000  val:-0.118043  sumni 0.00000
 ne = 1.0000

 iter:19  failiter:19  energy:     -1.095521702594  total:     -0.875031199015  error:     -0.000000000272
 In Bisection function HOMO = -0.356  LUMO =  1.545

 0.59472 = (-0.35563 + 1.54506)/2.0
 sum -  nocc_ = 1.00000000
 On Iteration in Bisection 0
 a: 1.00000  b:-0.50000

 0.11954 = (-0.35563 + 0.59472)/2.0
 sum -  nocc_ = 1.00000000
 On Iteration in Bisection 1
 a: 1.00000  b:-0.50000

 -0.11804 = (-0.35563 + 0.11954)/2.0
 sum -  nocc_ = 0.00000000
 ef = -0.11804 sum = 1.00000 

 Iter: 19  T:      100.000  val:-0.118043  sumni 0.00000
 ne = 1.0000

 iter:20  failiter:20  energy:     -1.095521702662  total:     -0.875031199083  error:     -0.000000000068
 In Bisection function HOMO = -0.356  LUMO =  1.545

 0.59472 = (-0.35563 + 1.54506)/2.0
 sum -  nocc_ = 1.00000000
 On Iteration in Bisection 0
 a: 1.00000  b:-0.50000

 0.11954 = (-0.35563 + 0.59472)/2.0
 sum -  nocc_ = 1.00000000
 On Iteration in Bisection 1
 a: 1.00000  b:-0.50000

 -0.11804 = (-0.35563 + 0.11954)/2.0
 sum -  nocc_ = 0.00000000
 ef = -0.11804 sum = 1.00000 

 Iter: 20  T:      100.000  val:-0.118043  sumni 0.00000
 ne = 1.0000

 iter:21  failiter:21  energy:     -1.095521702680  total:     -0.875031199100  error:     -0.000000000017
 In Bisection function HOMO = -0.356  LUMO =  1.545

 0.59472 = (-0.35563 + 1.54506)/2.0
 sum -  nocc_ = 1.00000000
 On Iteration in Bisection 0
 a: 1.00000  b:-0.50000

 0.11954 = (-0.35563 + 0.59472)/2.0
 sum -  nocc_ = 1.00000000
 On Iteration in Bisection 1
 a: 1.00000  b:-0.50000

 -0.11804 = (-0.35563 + 0.11954)/2.0
 sum -  nocc_ = 0.00000000
 ef = -0.11804 sum = 1.00000 

 Iter: 21  T:      100.000  val:-0.118043  sumni 0.00000
 ne = 1.0000

 iter:22  failiter:22  energy:     -1.095521702684  total:     -0.875031199105  error:     -0.000000000004
 In Bisection function HOMO = -0.356  LUMO =  1.545

 0.59472 = (-0.35563 + 1.54506)/2.0
 sum -  nocc_ = 1.00000000
 On Iteration in Bisection 0
 a: 1.00000  b:-0.50000

 0.11954 = (-0.35563 + 0.59472)/2.0
 sum -  nocc_ = 1.00000000
 On Iteration in Bisection 1
 a: 1.00000  b:-0.50000

 -0.11804 = (-0.35563 + 0.11954)/2.0
 sum -  nocc_ = 0.00000000
 ef = -0.11804 sum = 1.00000 

 Iter: 22  T:      100.000  val:-0.118043  sumni 0.00000
 ne = 1.0000

 iter:23  failiter:23  energy:     -1.095521702685  total:     -0.875031199106  error:     -0.000000000001
 In Bisection function HOMO = -0.356  LUMO =  1.545

 0.59472 = (-0.35563 + 1.54506)/2.0
 sum -  nocc_ = 1.00000000
 On Iteration in Bisection 0
 a: 1.00000  b:-0.50000

 0.11954 = (-0.35563 + 0.59472)/2.0
 sum -  nocc_ = 1.00000000
 On Iteration in Bisection 1
 a: 1.00000  b:-0.50000

 -0.11804 = (-0.35563 + 0.11954)/2.0
 sum -  nocc_ = 0.00000000
 ef = -0.11804 sum = 1.00000 

 Iter: 23  T:      100.000  val:-0.118043  sumni 0.00000
 ne = 1.0000

 iter:24  failiter:24  energy:     -1.095521702685  total:     -0.875031199106  error:     -0.000000000000
 FTHFEnergy =    -0.875031
 FD_dis[0] = 1.00000000 with -0.355630 eig value
 FD_dis[1] = 0.00000000 with -0.076589 eig value
 FD_dis[2] = 0.00000000 with 0.633694 eig value
 FD_dis[3] = 0.00000000 with 0.663988 eig value
 FD_dis[4] = 0.00000000 with 1.442825 eig value
 FD_dis[5] = 0.00000000 with 1.463122 eig value
 FD_dis[6] = 0.00000000 with 1.463122 eig value
 FD_dis[7] = 0.00000000 with 1.473843 eig value
 FD_dis[8] = 0.00000000 with 1.473843 eig value
 FD_dis[9] = 0.00000000 with 1.545064 eig value
*** PSI4 exiting successfully. Buy a developer a beer!
