    -----------------------------------------------------------------------
          PSI4: An Open-Source Ab Initio Electronic Structure Package
                              PSI 4.0 Driver

               Git: Rev {master} 556e8139d3cfa1f96ccffe2cdf22cc56a185d2b2

    J. M. Turney, A. C. Simmonett, R. M. Parrish, E. G. Hohenstein,
    F. A. Evangelista, J. T. Fermann, B. J. Mintz, L. A. Burns, J. J. Wilke,
    M. L. Abrams, N. J. Russ, M. L. Leininger, C. L. Janssen, E. T. Seidl,
    W. D. Allen, H. F. Schaefer, R. A. King, E. F. Valeev, C. D. Sherrill,
    and T. D. Crawford, WIREs Comput. Mol. Sci. 2, 556-565 (2012)
    (doi: 10.1002/wcms.93)

                         Additional Contributions by
    A. E. DePrince, M. Saitow, U. Bozkaya, A. Yu. Sokolov
    -----------------------------------------------------------------------

    Process ID:  14572
    PSI4DATADIR: /Users/kevinhannon/Programs/psi4cmake/psi4/lib
    Memory level set to 256.000 MB

  ==> Input File <==

--------------------------------------------------------------------------

# PYTHONPATH must include directory above plugin directory.
#     Define either externally or here, then import plugin.
sys.path.insert(0, '/Users/kevinhannon/Programs/Quantum_Programs/Quantum-Programs/GS/')
import scf

molecule {
0 1
H
H 1 2.10000
symmetry c1
units angstrom
}


set {
  basis cc-pvdz
  reference rhf
  scf_type  pk
}

set scf {
  DO_FTHF true
  MAX_ITER 130
  MAX_TEMP 20000
  TEMP_INCREMENT 0
  bisect  true
  bisect_iter  40
}
energy('rhf')
energy('scf')


--------------------------------------------------------------------------

*** tstart() called on Kevins-MacBook-Pro.local
*** at Sun Apr 12 15:46:04 2015

/Users/kevinhannon/Programs/Quantum_Programs/Quantum-Programs/GS/scf/scf.so loaded.

*** tstart() called on Kevins-MacBook-Pro.local
*** at Sun Apr 12 15:46:04 2015


         ---------------------------------------------------------
                                   SCF
            by Justin Turney, Rob Parrish, and Andy Simmonett
                              RHF Reference
                        1 Threads,    256 MiB Core
         ---------------------------------------------------------

  ==> Geometry <==

    Molecular point group: c1
    Full point group: D_inf_h

    Geometry (in Angstrom), charge = 0, multiplicity = 1:

       Center              X                  Y                   Z       
    ------------   -----------------  -----------------  -----------------
           H          0.000000000000     0.000000000000    -1.050000000000
           H          0.000000000000     0.000000000000     1.050000000000

  Running in c1 symmetry.

  Rotational constants: A = ************  B =      7.58582  C =      7.58582 [cm^-1]
  Rotational constants: A = ************  B = 227417.28015  C = 227417.28015 [MHz]
  Nuclear repulsion =    0.251989146947619

  Charge       = 0
  Multiplicity = 1
  Electrons    = 2
  Nalpha       = 1
  Nbeta        = 1

  ==> Algorithm <==

  SCF Algorithm Type is PK.
  DIIS enabled.
  MOM disabled.
  Fractional occupation disabled.
  Guess Type is CORE.
  Energy threshold   = 1.00e-06
  Density threshold  = 1.00e-06
  Integral threshold = 0.00e+00

  ==> Primary Basis <==

  Basis Set: CC-PVDZ
    Number of shells: 6
    Number of basis function: 10
    Number of Cartesian functions: 10
    Spherical Harmonics?: true
    Max angular momentum: 1

  ==> Pre-Iterations <==

   -------------------------------------------------------
    Irrep   Nso     Nmo     Nalpha   Nbeta   Ndocc  Nsocc
   -------------------------------------------------------
     A         10      10       0       0       0       0
   -------------------------------------------------------
    Total      10      10       1       1       1       0
   -------------------------------------------------------

  Starting with a DF guess...

 OEINTS: Overlap, kinetic, potential, dipole, and quadrupole integrals
         stored in file 35.

  ==> Integral Setup <==

  ==> DFJK: Density-Fitted J/K Matrices <==

    J tasked:                  Yes
    K tasked:                  Yes
    wK tasked:                  No
    OpenMP threads:              1
    Integrals threads:           1
    Memory (MB):               183
    Algorithm:                Core
    Integral Cache:           NONE
    Schwarz Cutoff:          1E-12
    Fitting Condition:       1E-12

   => Auxiliary Basis Set <=

  Basis Set: 
    Number of shells: 18
    Number of basis function: 46
    Number of Cartesian functions: 50
    Spherical Harmonics?: true
    Max angular momentum: 2

  Minimum eigenvalue in the overlap matrix is 2.2338409434E-01.
  Using Symmetric Orthogonalization.
  SCF Guess: Core (One-Electron) Hamiltonian.

  ==> Iterations <==

                           Total Energy        Delta E     RMS |[F,P]|

   @DF-RHF iter   1:    -0.88902884175856   -8.89029e-01   1.35812e-02 
   @DF-RHF iter   2:    -0.90826343421116   -1.92346e-02   2.33857e-03 DIIS
   @DF-RHF iter   3:    -0.90887994956173   -6.16515e-04   6.92613e-05 DIIS
   @DF-RHF iter   4:    -0.90888038003170   -4.30470e-07   6.61585e-07 DIIS

  DF guess converged.

  ==> Integral Setup <==

 MINTS: Wrapper to libmints.
   by Justin Turney

   Calculation information:
      Number of atoms:                   2
      Number of AO shells:               6
      Number of SO shells:               6
      Number of primitives:             10
      Number of atomic orbitals:        10
      Number of basis functions:        10

      Number of irreps:                  1
      Integral cutoff                 0.00e+00
      Number of functions per irrep: [  10 ]

 OEINTS: Overlap, kinetic, potential, dipole, and quadrupole integrals
         stored in file 35.

      Computing two-electron integrals...done
      Computed 512 non-zero two-electron integrals.
        Stored in file 33.

	Batch   1 pq = [       0,      55] index = [             0,1540]
  ==> DiskJK: Disk-Based J/K Matrices <==

    J tasked:                  Yes
    K tasked:                  Yes
    wK tasked:                  No
    Memory (MB):               183
    Schwarz Cutoff:          1E-12

   @RHF iter   5:    -0.90886890082335    1.14792e-05   4.44552e-06 DIIS
   @RHF iter   6:    -0.90886890272052   -1.89717e-09   7.30329e-07 DIIS

  ==> Post-Iterations <==

    Orbital Energies (a.u.)
    -----------------------

    Doubly Occupied:                                                      

       1A     -0.377358  

    Virtual:                                                              

       2A     -0.047480     3A      0.654555     4A      0.662437  
       5A      1.375917     6A      1.458128     7A      1.458128  
       8A      1.491293     9A      1.491293    10A      1.653297  

    Final Occupation by Irrep:
              A 
    DOCC [     1 ]

  Energy converged.

  @RHF Final Energy:    -0.90886890272052

   => Energetics <=

    Nuclear Repulsion Energy =              0.2519891469476190
    One-Electron Energy =                  -1.5669975131104010
    Two-Electron Energy =                   0.4061394634422641
    DFT Exchange-Correlation Energy =       0.0000000000000000
    Empirical Dispersion Energy =           0.0000000000000000
    PCM Polarization Energy =               0.0000000000000000
    EFP Energy =                            0.0000000000000000
    Total Energy =                         -0.9088689027205179

    Alert: EFP and PCM quantities not currently incorporated into SCF psivars.

Properties will be evaluated at   0.000000,   0.000000,   0.000000 Bohr
  ==> Properties <==


Properties computed using the SCF density matrix

  Nuclear Dipole Moment: (a.u.)
     X:     0.0000      Y:     0.0000      Z:     0.0000

  Electronic Dipole Moment: (a.u.)
     X:    -0.0000      Y:    -0.0000      Z:    -0.0000

  Dipole Moment: (a.u.)
     X:    -0.0000      Y:    -0.0000      Z:    -0.0000     Total:     0.0000

  Dipole Moment: (Debye)
     X:    -0.0000      Y:    -0.0000      Z:    -0.0000     Total:     0.0000


  Saving occupied orbitals to File 180.

*** tstop() called on Kevins-MacBook-Pro.local at Sun Apr 12 15:46:04 2015
Module time:
	user time   =       0.20 seconds =       0.00 minutes
	system time =       0.01 seconds =       0.00 minutes
	total time  =          0 seconds =       0.00 minutes
Total time:
	user time   =       0.21 seconds =       0.00 minutes
	system time =       0.01 seconds =       0.00 minutes
	total time  =          0 seconds =       0.00 minutes

*** tstart() called on Kevins-MacBook-Pro.local
*** at Sun Apr 12 15:46:04 2015


         ---------------------------------------------------------
                                   SCF
            by Justin Turney, Rob Parrish, and Andy Simmonett
                              RHF Reference
                        1 Threads,    256 MiB Core
         ---------------------------------------------------------

  ==> Geometry <==

    Molecular point group: c1
    Full point group: D_inf_h

    Geometry (in Angstrom), charge = 0, multiplicity = 1:

       Center              X                  Y                   Z       
    ------------   -----------------  -----------------  -----------------
           H          0.000000000000     0.000000000000    -1.050000000000
           H          0.000000000000     0.000000000000     1.050000000000

  Running in c1 symmetry.

  Rotational constants: A = ************  B =      7.58582  C =      7.58582 [cm^-1]
  Rotational constants: A = ************  B = 227417.28015  C = 227417.28015 [MHz]
  Nuclear repulsion =    0.251989146947619

  Charge       = 0
  Multiplicity = 1
  Electrons    = 2
  Nalpha       = 1
  Nbeta        = 1

  ==> Algorithm <==

  SCF Algorithm Type is PK.
  DIIS enabled.
  MOM disabled.
  Fractional occupation disabled.
  Guess Type is CORE.
  Energy threshold   = 1.00e-08
  Density threshold  = 1.00e-08
  Integral threshold = 0.00e+00

  ==> Primary Basis <==

  Basis Set: CC-PVDZ
    Number of shells: 6
    Number of basis function: 10
    Number of Cartesian functions: 10
    Spherical Harmonics?: true
    Max angular momentum: 1

  ==> Pre-Iterations <==

   -------------------------------------------------------
    Irrep   Nso     Nmo     Nalpha   Nbeta   Ndocc  Nsocc
   -------------------------------------------------------
     A         10      10       0       0       0       0
   -------------------------------------------------------
    Total      10      10       1       1       1       0
   -------------------------------------------------------

  Starting with a DF guess...

 OEINTS: Overlap, kinetic, potential, dipole, and quadrupole integrals
         stored in file 35.

  ==> Integral Setup <==

  ==> DFJK: Density-Fitted J/K Matrices <==

    J tasked:                  Yes
    K tasked:                  Yes
    wK tasked:                  No
    OpenMP threads:              1
    Integrals threads:           1
    Memory (MB):               183
    Algorithm:                Core
    Integral Cache:           NONE
    Schwarz Cutoff:          1E-12
    Fitting Condition:       1E-12

   => Auxiliary Basis Set <=

  Basis Set: 
    Number of shells: 18
    Number of basis function: 46
    Number of Cartesian functions: 50
    Spherical Harmonics?: true
    Max angular momentum: 2

  Minimum eigenvalue in the overlap matrix is 2.2338409434E-01.
  Using Symmetric Orthogonalization.
  SCF Guess: Core (One-Electron) Hamiltonian.

  ==> Iterations <==

                           Total Energy        Delta E     RMS |[F,P]|

   @DF-RHF iter   1:    -0.88902884175856   -8.89029e-01   1.35812e-02 
   @DF-RHF iter   2:    -0.90826343421116   -1.92346e-02   2.33857e-03 DIIS
   @DF-RHF iter   3:    -0.90887994956173   -6.16515e-04   6.92613e-05 DIIS
   @DF-RHF iter   4:    -0.90888038003170   -4.30470e-07   6.61585e-07 DIIS
   @DF-RHF iter   5:    -0.90888038006367   -3.19709e-11   1.21811e-10 DIIS

  DF guess converged.

  ==> Integral Setup <==

 MINTS: Wrapper to libmints.
   by Justin Turney

   Calculation information:
      Number of atoms:                   2
      Number of AO shells:               6
      Number of SO shells:               6
      Number of primitives:             10
      Number of atomic orbitals:        10
      Number of basis functions:        10

      Number of irreps:                  1
      Integral cutoff                 0.00e+00
      Number of functions per irrep: [  10 ]

 OEINTS: Overlap, kinetic, potential, dipole, and quadrupole integrals
         stored in file 35.

      Computing two-electron integrals...done
      Computed 512 non-zero two-electron integrals.
        Stored in file 33.

	Batch   1 pq = [       0,      55] index = [             0,1540]
  ==> DiskJK: Disk-Based J/K Matrices <==

    J tasked:                  Yes
    K tasked:                  Yes
    wK tasked:                  No
    Memory (MB):               183
    Schwarz Cutoff:          1E-12

   @RHF iter   6:    -0.90886890082346    1.14792e-05   4.44539e-06 DIIS
   @RHF iter   7:    -0.90886890272052   -1.89706e-09   7.30308e-07 DIIS
   @RHF iter   8:    -0.90886890277775   -5.72340e-11   2.53871e-08 DIIS
   @RHF iter   9:    -0.90886890277782   -6.37268e-14   7.70908e-14 DIIS

  ==> Post-Iterations <==

    Orbital Energies (a.u.)
    -----------------------

    Doubly Occupied:                                                      

       1A     -0.377358  

    Virtual:                                                              

       2A     -0.047480     3A      0.654555     4A      0.662437  
       5A      1.375917     6A      1.458128     7A      1.458128  
       8A      1.491293     9A      1.491293    10A      1.653297  

    Final Occupation by Irrep:
              A 
    DOCC [     1 ]

  Energy converged.

  @RHF Final Energy:    -0.90886890277782

   => Energetics <=

    Nuclear Repulsion Energy =              0.2519891469476190
    One-Electron Energy =                  -1.5669994020273292
    Two-Electron Energy =                   0.4061413523018924
    DFT Exchange-Correlation Energy =       0.0000000000000000
    Empirical Dispersion Energy =           0.0000000000000000
    PCM Polarization Energy =               0.0000000000000000
    EFP Energy =                            0.0000000000000000
    Total Energy =                         -0.9088689027778178

    Alert: EFP and PCM quantities not currently incorporated into SCF psivars.

Properties will be evaluated at   0.000000,   0.000000,   0.000000 Bohr
  ==> Properties <==


Properties computed using the SCF density matrix

  Nuclear Dipole Moment: (a.u.)
     X:     0.0000      Y:     0.0000      Z:     0.0000

  Electronic Dipole Moment: (a.u.)
     X:    -0.0000      Y:     0.0000      Z:     0.0000

  Dipole Moment: (a.u.)
     X:    -0.0000      Y:     0.0000      Z:     0.0000     Total:     0.0000

  Dipole Moment: (Debye)
     X:    -0.0000      Y:     0.0000      Z:     0.0000     Total:     0.0000


  Saving occupied orbitals to File 180.

*** tstop() called on Kevins-MacBook-Pro.local at Sun Apr 12 15:46:04 2015
Module time:
	user time   =       0.20 seconds =       0.00 minutes
	system time =       0.01 seconds =       0.00 minutes
	total time  =          0 seconds =       0.00 minutes
Total time:
	user time   =       0.42 seconds =       0.01 minutes
	system time =       0.02 seconds =       0.00 minutes
	total time  =          0 seconds =       0.00 minutes
Reading options from the SCF block
Calling plugin scf.so.
    Molecular point group: c1
    Full point group: D_inf_h

    Geometry (in Angstrom), charge = 0, multiplicity = 1:

       Center              X                  Y                   Z       
    ------------   -----------------  -----------------  -----------------
           H          0.000000000000     0.000000000000    -1.050000000000
           H          0.000000000000     0.000000000000     1.050000000000


    Nuclear repulsion energy:       0.25198915

  ## Overlap (Symmetry 0) ##
  Irrep: 1 Size: 10 x 10

                 1                   2                   3                   4                   5

    1     1.00000000000000     0.68486025149275     0.00000000000000     0.00000000000000     0.00000000000000
    2     0.68486025149275     1.00000000000000     0.00000000000000     0.00000000000000     0.00000000000000
    3     0.00000000000000     0.00000000000000     1.00000000000000     0.00000000000000     0.00000000000000
    4     0.00000000000000     0.00000000000000     0.00000000000000     1.00000000000000     0.00000000000000
    5     0.00000000000000     0.00000000000000     0.00000000000000     0.00000000000000     1.00000000000000
    6     0.02085622028660     0.14709996489478     0.02615259691321     0.00000000000000     0.00000000000000
    7     0.14709996489478     0.38264326100394     0.11027155262901     0.00000000000000     0.00000000000000
    8    -0.02615259691321    -0.11027155262901    -0.03411467472693     0.00000000000000     0.00000000000000
    9     0.00000000000000     0.00000000000000     0.00000000000000     0.00326484838578     0.00000000000000
   10     0.00000000000000     0.00000000000000     0.00000000000000     0.00000000000000     0.00326484838578

                 6                   7                   8                   9                  10

    1     0.02085622028660     0.14709996489478    -0.02615259691321     0.00000000000000     0.00000000000000
    2     0.14709996489478     0.38264326100394    -0.11027155262901     0.00000000000000     0.00000000000000
    3     0.02615259691321     0.11027155262901    -0.03411467472693     0.00000000000000     0.00000000000000
    4     0.00000000000000     0.00000000000000     0.00000000000000     0.00326484838578     0.00000000000000
    5     0.00000000000000     0.00000000000000     0.00000000000000     0.00000000000000     0.00326484838578
    6     1.00000000000000     0.68486025149275    -0.00000000000000     0.00000000000000     0.00000000000000
    7     0.68486025149275     1.00000000000000     0.00000000000000     0.00000000000000     0.00000000000000
    8    -0.00000000000000     0.00000000000000     1.00000000000000     0.00000000000000     0.00000000000000
    9     0.00000000000000     0.00000000000000     0.00000000000000     1.00000000000000     0.00000000000000
   10     0.00000000000000     0.00000000000000     0.00000000000000     0.00000000000000     1.00000000000000



  ## Kinetic (Symmetry 0) ##
  Irrep: 1 Size: 10 x 10

                 1                   2                   3                   4                   5

    1     0.96945722711242     0.20123413106538     0.00000000000000     0.00000000000000     0.00000000000000
    2     0.20123413106538     0.18300000000000     0.00000000000000     0.00000000000000     0.00000000000000
    3     0.00000000000000     0.00000000000000     1.81750000000000     0.00000000000000     0.00000000000000
    4     0.00000000000000     0.00000000000000     0.00000000000000     1.81750000000000     0.00000000000000
    5     0.00000000000000     0.00000000000000     0.00000000000000     0.00000000000000     1.81750000000000
    6    -0.02047627096414    -0.00111469979665    -0.02781951778791     0.00000000000000     0.00000000000000
    7    -0.00111469979665     0.02517809371786     0.01969411678793     0.00000000000000     0.00000000000000
    8     0.02781951778791    -0.01969411678793     0.05279814001588     0.00000000000000     0.00000000000000
    9     0.00000000000000     0.00000000000000     0.00000000000000    -0.00765359471031     0.00000000000000
   10     0.00000000000000     0.00000000000000     0.00000000000000     0.00000000000000    -0.00765359471031

                 6                   7                   8                   9                  10

    1    -0.02047627096414    -0.00111469979665     0.02781951778791     0.00000000000000     0.00000000000000
    2    -0.00111469979665     0.02517809371786    -0.01969411678793     0.00000000000000     0.00000000000000
    3    -0.02781951778791     0.01969411678793     0.05279814001588     0.00000000000000     0.00000000000000
    4     0.00000000000000     0.00000000000000     0.00000000000000    -0.00765359471031     0.00000000000000
    5     0.00000000000000     0.00000000000000     0.00000000000000     0.00000000000000    -0.00765359471031
    6     0.96945722711242     0.20123413106538    -0.00000000000000     0.00000000000000     0.00000000000000
    7     0.20123413106538     0.18300000000000     0.00000000000000     0.00000000000000     0.00000000000000
    8    -0.00000000000000     0.00000000000000     1.81750000000000     0.00000000000000     0.00000000000000
    9     0.00000000000000     0.00000000000000     0.00000000000000     1.81750000000000     0.00000000000000
   10     0.00000000000000     0.00000000000000     0.00000000000000     0.00000000000000     1.81750000000000



  ## Potential (Symmetry 0) ##
  Irrep: 1 Size: 10 x 10

                 1                   2                   3                   4                   5

    1    -1.62985091146953    -0.82228089572673    -0.03994850309618     0.00000000000000     0.00000000000000
    2    -0.82228089572673    -0.80796438994964    -0.03747351481499     0.00000000000000     0.00000000000000
    3    -0.03994850309618    -0.03747351481499    -1.17007478092846     0.00000000000000     0.00000000000000
    4     0.00000000000000     0.00000000000000     0.00000000000000    -1.15356762106692     0.00000000000000
    5     0.00000000000000     0.00000000000000     0.00000000000000     0.00000000000000    -1.15356762106692
    6    -0.02134888295965    -0.16776238670094    -0.02613412860991     0.00000000000000     0.00000000000000
    7    -0.16776238670094    -0.32177433530383    -0.11476002900166     0.00000000000000     0.00000000000000
    8     0.02613412860991     0.11476002900166     0.03382113691654     0.00000000000000     0.00000000000000
    9     0.00000000000000     0.00000000000000     0.00000000000000    -0.00300377931070     0.00000000000000
   10     0.00000000000000     0.00000000000000     0.00000000000000     0.00000000000000    -0.00300377931070

                 6                   7                   8                   9                  10

    1    -0.02134888295965    -0.16776238670094     0.02613412860991     0.00000000000000     0.00000000000000
    2    -0.16776238670094    -0.32177433530383     0.11476002900166     0.00000000000000     0.00000000000000
    3    -0.02613412860991    -0.11476002900166     0.03382113691654     0.00000000000000     0.00000000000000
    4     0.00000000000000     0.00000000000000     0.00000000000000    -0.00300377931070     0.00000000000000
    5     0.00000000000000     0.00000000000000     0.00000000000000     0.00000000000000    -0.00300377931070
    6    -1.62985091146953    -0.82228089572673     0.03994850309618     0.00000000000000     0.00000000000000
    7    -0.82228089572673    -0.80796438994964     0.03747351481499     0.00000000000000     0.00000000000000
    8     0.03994850309618     0.03747351481499    -1.17007478092846     0.00000000000000     0.00000000000000
    9     0.00000000000000     0.00000000000000     0.00000000000000    -1.15356762106692     0.00000000000000
   10     0.00000000000000     0.00000000000000     0.00000000000000     0.00000000000000    -1.15356762106692



  ## One Electron Ints (Symmetry 0) ##
  Irrep: 1 Size: 10 x 10

                 1                   2                   3                   4                   5

    1    -0.66039368435711    -0.62104676466134    -0.03994850309618     0.00000000000000     0.00000000000000
    2    -0.62104676466134    -0.62496438994964    -0.03747351481499     0.00000000000000     0.00000000000000
    3    -0.03994850309618    -0.03747351481499     0.64742521907154     0.00000000000000     0.00000000000000
    4     0.00000000000000     0.00000000000000     0.00000000000000     0.66393237893308     0.00000000000000
    5     0.00000000000000     0.00000000000000     0.00000000000000     0.00000000000000     0.66393237893308
    6    -0.04182515392379    -0.16887708649759    -0.05395364639782     0.00000000000000     0.00000000000000
    7    -0.16887708649759    -0.29659624158597    -0.09506591221373     0.00000000000000     0.00000000000000
    8     0.05395364639782     0.09506591221373     0.08661927693243     0.00000000000000     0.00000000000000
    9     0.00000000000000     0.00000000000000     0.00000000000000    -0.01065737402101     0.00000000000000
   10     0.00000000000000     0.00000000000000     0.00000000000000     0.00000000000000    -0.01065737402101

                 6                   7                   8                   9                  10

    1    -0.04182515392379    -0.16887708649759     0.05395364639782     0.00000000000000     0.00000000000000
    2    -0.16887708649759    -0.29659624158597     0.09506591221373     0.00000000000000     0.00000000000000
    3    -0.05395364639782    -0.09506591221373     0.08661927693243     0.00000000000000     0.00000000000000
    4     0.00000000000000     0.00000000000000     0.00000000000000    -0.01065737402101     0.00000000000000
    5     0.00000000000000     0.00000000000000     0.00000000000000     0.00000000000000    -0.01065737402101
    6    -0.66039368435711    -0.62104676466134     0.03994850309618     0.00000000000000     0.00000000000000
    7    -0.62104676466134    -0.62496438994964     0.03747351481499     0.00000000000000     0.00000000000000
    8     0.03994850309618     0.03747351481499     0.64742521907154     0.00000000000000     0.00000000000000
    9     0.00000000000000     0.00000000000000     0.00000000000000     0.66393237893308     0.00000000000000
   10     0.00000000000000     0.00000000000000     0.00000000000000     0.00000000000000     0.66393237893308




	There are 0 unique integrals

  ## Fock (Symmetry 0) ##
  Irrep: 1 Size: 10 x 10

                 1                   2                   3                   4                   5

    1    -0.42382623715908    -0.36054099622473    -0.04582954338529     0.00000000000000     0.00000000000000
    2    -0.36054099622473    -0.31790033462339     0.02570221347584    -0.00000000000000     0.00000000000000
    3    -0.04582954338529     0.02570221347584     0.67022893805584     0.00000000000000     0.00000000000000
    4     0.00000000000000    -0.00000000000000     0.00000000000000     0.66397425110101     0.00000000000000
    5     0.00000000000000     0.00000000000000     0.00000000000000     0.00000000000000     0.66397425110101
    6     0.01596574503640    -0.01422464571491     0.02106460241507    -0.00000000000000     0.00000000000000
    7    -0.01422464571491    -0.09661841982564    -0.13135132589006    -0.00000000000000     0.00000000000000
    8    -0.02106460241507     0.13135132589006     0.11448720395057     0.00000000000000     0.00000000000000
    9    -0.00000000000000     0.00000000000000    -0.00000000000000    -0.01282514928292     0.00000000000000
   10     0.00000000000000     0.00000000000000     0.00000000000000     0.00000000000000    -0.01282514928292

                 6                   7                   8                   9                  10

    1     0.01596574503640    -0.01422464571491    -0.02106460241506    -0.00000000000000     0.00000000000000
    2    -0.01422464571491    -0.09661841982564     0.13135132589006     0.00000000000000     0.00000000000000
    3     0.02106460241507    -0.13135132589006     0.11448720395057    -0.00000000000000     0.00000000000000
    4    -0.00000000000000    -0.00000000000000     0.00000000000000    -0.01282514928292     0.00000000000000
    5     0.00000000000000     0.00000000000000     0.00000000000000     0.00000000000000    -0.01282514928292
    6    -0.42382623715908    -0.36054099622473     0.04582954338529     0.00000000000000     0.00000000000000
    7    -0.36054099622473    -0.31790033462339    -0.02570221347584    -0.00000000000000     0.00000000000000
    8     0.04582954338529    -0.02570221347584     0.67022893805584     0.00000000000000     0.00000000000000
    9     0.00000000000000    -0.00000000000000     0.00000000000000     0.66397425110101     0.00000000000000
   10     0.00000000000000     0.00000000000000     0.00000000000000     0.00000000000000     0.66397425110101



  ## C (Symmetry 0) ##
  Irrep: 1 Size: 10 x 10

                 1                   2                   3                   4                   5

    1     0.93823549895112     0.87895625393111     0.05273524702091    -0.01323588590077     0.01986093242769
    2    -1.04021480581009    -0.86993892229341    -0.00141936109663    -0.03736473862088    -0.15205009717913
    3     0.49023700591138    -0.50841651580152    -0.06592659812840    -0.02139091017718    -0.04230062239665
    4    -0.41568800745548     0.55315385505975    -0.14569931483163    -0.00098690852278     0.00059869332188
    5     0.01301307264876    -0.08037456249395     0.70350923725339    -0.00000000000000    -0.00000000000000
    6    -0.00883058118159    -0.02956218378421    -0.00031655267921    -0.95546436976399    -0.23430479731965
    7     0.15195380870049     0.19075903068209     0.00221402613435     0.51421189698241     0.89703940440510
    8    -0.05056676267761    -0.05853344557358    -0.00111428479417     0.36153323542973     0.59030200645045
    9     0.00067858096836    -0.00090298414168     0.00023784372023     0.60456460835772    -0.36675009416964
   10     0.07188915888118    -0.12801350363640    -0.69281970885562    -0.00000000000000     0.00000000000000

                 6                   7                   8                   9                  10

    1     0.32766574375828     0.42552777463333    -0.07326254761049     0.00763318791230     0.05426229629141
    2     0.53662136212141     0.30106966377894     0.05443245210608    -0.09746832262066    -0.25112709892877
    3     0.52156513001778    -0.48515125650558     0.06697984686038    -0.03587699652949    -0.06618003036803
    4     0.41568800745548    -0.55315385505975    -0.14569931483163     0.00098690852278    -0.00059869332188
    5     0.01324785045925    -0.08079293777126    -0.70125102335497     0.00000000000000    -0.00000000000000
    6     0.04929576686069     0.01360428716491     0.00227075530437    -0.96057658476448    -0.24273196423458
    7    -0.18423782888298    -0.05890754989388    -0.01351675893709     0.53445850060970     0.93041466507201
    8     0.04243315836814     0.01053124755272     0.00424093382629    -0.37716941733267    -0.62740314771250
    9    -0.00067858096836     0.00090298414168     0.00023784372023    -0.60456460835774     0.36675009416963
   10    -0.07193202796163     0.12827659806403    -0.69052653811012     0.00000000000000    -0.00000000000000




 In Bisection function HOMO = -0.792  LUMO =  0.821

 0.01422 = (-0.79233 + 0.82077)/2.0
 sum -  nocc_ = 2.27294180
 On Iteration in Bisection 0
 a: 2.27294  b:-0.32362

 -0.38906 = (-0.79233 + 0.01422)/2.0
 sum -  nocc_ = 0.99669511
 On Iteration in Bisection 1
 a: 0.99670  b:-0.32362

 -0.59070 = (-0.79233 + -0.38906)/2.0
 sum -  nocc_ = 0.79837920
 On Iteration in Bisection 2
 a: 0.79838  b:-0.32362

 -0.69151 = (-0.79233 + -0.59070)/2.0
 sum -  nocc_ = 0.34362195
 On Iteration in Bisection 3
 a: 0.34362  b:-0.32362

 -0.74192 = (-0.79233 + -0.69151)/2.0
 sum -  nocc_ = 0.01100039
 On Iteration in Bisection 4
 a: 0.01100  b:-0.32362

 -0.76713 = (-0.79233 + -0.74192)/2.0
 sum -  nocc_ = -0.16004404
 On Iteration in Bisection 5
 a: -0.16004  b:-0.32362

 -0.75453 = (-0.76713 + -0.74192)/2.0
 sum -  nocc_ = -0.07496314
 On Iteration in Bisection 6
 a: -0.07496  b:-0.16004

 -0.74822 = (-0.75453 + -0.74192)/2.0
 sum -  nocc_ = -0.03202868
 On Iteration in Bisection 7
 a: -0.03203  b:-0.07496

 -0.74507 = (-0.74822 + -0.74192)/2.0
 sum -  nocc_ = -0.01051806
 On Iteration in Bisection 8
 a: -0.01052  b:-0.03203

 -0.74350 = (-0.74507 + -0.74192)/2.0
 sum -  nocc_ = 0.00024118
 On Iteration in Bisection 9
 a: 0.00024  b:-0.01052

 -0.74429 = (-0.74507 + -0.74350)/2.0
 sum -  nocc_ = -0.00513856
 On Iteration in Bisection 10
 a: -0.00514  b:-0.01052

 -0.74389 = (-0.74429 + -0.74350)/2.0
 sum -  nocc_ = -0.00244871
 On Iteration in Bisection 11
 a: -0.00245  b:-0.00514

 -0.74370 = (-0.74389 + -0.74350)/2.0
 sum -  nocc_ = -0.00110377
 On Iteration in Bisection 12
 a: -0.00110  b:-0.00245

 -0.74360 = (-0.74370 + -0.74350)/2.0
 sum -  nocc_ = -0.00043130
 On Iteration in Bisection 13
 a: -0.00043  b:-0.00110

 -0.74355 = (-0.74360 + -0.74350)/2.0
 sum -  nocc_ = -0.00009506
 On Iteration in Bisection 14
 a: -0.00010  b:-0.00043

 -0.74352 = (-0.74355 + -0.74350)/2.0
 sum -  nocc_ = 0.00007306
 On Iteration in Bisection 15
 a: 0.00007  b:-0.00010

 -0.74354 = (-0.74355 + -0.74352)/2.0
 sum -  nocc_ = -0.00001100
 On Iteration in Bisection 16
 a: -0.00001  b:-0.00010

 -0.74353 = (-0.74354 + -0.74352)/2.0
 sum -  nocc_ = 0.00003103
 On Iteration in Bisection 17
 a: 0.00003  b:-0.00001

 -0.74353 = (-0.74354 + -0.74353)/2.0
 sum -  nocc_ = 0.00001001
 On Iteration in Bisection 18
 a: 0.00001  b:-0.00001

 -0.74353 = (-0.74354 + -0.74353)/2.0
 sum -  nocc_ = -0.00000049
 On Iteration in Bisection 19
 a: -0.00000  b:-0.00001

 -0.74353 = (-0.74353 + -0.74353)/2.0
 sum -  nocc_ = 0.00000476
 On Iteration in Bisection 20
 a: 0.00000  b:-0.00000

 -0.74353 = (-0.74353 + -0.74353)/2.0
 sum -  nocc_ = 0.00000213
 On Iteration in Bisection 21
 a: 0.00000  b:-0.00000

 -0.74353 = (-0.74353 + -0.74353)/2.0
 sum -  nocc_ = 0.00000082
 On Iteration in Bisection 22
 a: 0.00000  b:-0.00000

 -0.74353 = (-0.74353 + -0.74353)/2.0
 sum -  nocc_ = 0.00000016
 On Iteration in Bisection 23
 a: 0.00000  b:-0.00000

 -0.74353 = (-0.74353 + -0.74353)/2.0
 sum -  nocc_ = -0.00000016
 On Iteration in Bisection 24
 a: -0.00000  b:-0.00000

 -0.74353 = (-0.74353 + -0.74353)/2.0
 sum -  nocc_ = -0.00000000
 ef = -0.74353 sum = 1.00000 

 Iter: 0  T:    20000.000  val:-0.743534  sumni 0.00000
 ne = 1.0000

Nuc Replusion =       0.251989146948
 1st iteration =       0.593462941540
 In Bisection function HOMO = -0.271  LUMO =  1.858

 0.79309 = (-0.27143 + 1.85762)/2.0
 sum -  nocc_ = 2.54270797
 On Iteration in Bisection 0
 a: 2.54271  b:-0.49950

 0.26083 = (-0.27143 + 0.79309)/2.0
 sum -  nocc_ = 0.75350166
 On Iteration in Bisection 1
 a: 0.75350  b:-0.49950

 -0.00530 = (-0.27143 + 0.26083)/2.0
 sum -  nocc_ = 0.01747757
 On Iteration in Bisection 2
 a: 0.01748  b:-0.49950

 -0.13837 = (-0.27143 + -0.00530)/2.0
 sum -  nocc_ = -0.10494537
 On Iteration in Bisection 3
 a: -0.10495  b:-0.49950

 -0.07184 = (-0.13837 + -0.00530)/2.0
 sum -  nocc_ = -0.02953494
 On Iteration in Bisection 4
 a: -0.02953  b:-0.10495

 -0.03857 = (-0.07184 + -0.00530)/2.0
 sum -  nocc_ = -0.00538613
 On Iteration in Bisection 5
 a: -0.00539  b:-0.02953

 -0.02194 = (-0.03857 + -0.00530)/2.0
 sum -  nocc_ = 0.00586468
 On Iteration in Bisection 6
 a: 0.00586  b:-0.00539

 -0.03025 = (-0.03857 + -0.02194)/2.0
 sum -  nocc_ = 0.00023665
 On Iteration in Bisection 7
 a: 0.00024  b:-0.00539

 -0.03441 = (-0.03857 + -0.03025)/2.0
 sum -  nocc_ = -0.00257009
 On Iteration in Bisection 8
 a: -0.00257  b:-0.00539

 -0.03233 = (-0.03441 + -0.03025)/2.0
 sum -  nocc_ = -0.00116622
 On Iteration in Bisection 9
 a: -0.00117  b:-0.00257

 -0.03129 = (-0.03233 + -0.03025)/2.0
 sum -  nocc_ = -0.00046474
 On Iteration in Bisection 10
 a: -0.00046  b:-0.00117

 -0.03077 = (-0.03129 + -0.03025)/2.0
 sum -  nocc_ = -0.00011405
 On Iteration in Bisection 11
 a: -0.00011  b:-0.00046

 -0.03051 = (-0.03077 + -0.03025)/2.0
 sum -  nocc_ = 0.00006130
 On Iteration in Bisection 12
 a: 0.00006  b:-0.00011

 -0.03064 = (-0.03077 + -0.03051)/2.0
 sum -  nocc_ = -0.00002637
 On Iteration in Bisection 13
 a: -0.00003  b:-0.00011

 -0.03058 = (-0.03064 + -0.03051)/2.0
 sum -  nocc_ = 0.00001746
 On Iteration in Bisection 14
 a: 0.00002  b:-0.00003

 -0.03061 = (-0.03064 + -0.03058)/2.0
 sum -  nocc_ = -0.00000445
 On Iteration in Bisection 15
 a: -0.00000  b:-0.00003

 -0.03059 = (-0.03061 + -0.03058)/2.0
 sum -  nocc_ = 0.00000651
 On Iteration in Bisection 16
 a: 0.00001  b:-0.00000

 -0.03060 = (-0.03061 + -0.03059)/2.0
 sum -  nocc_ = 0.00000103
 On Iteration in Bisection 17
 a: 0.00000  b:-0.00000

 -0.03061 = (-0.03061 + -0.03060)/2.0
 sum -  nocc_ = -0.00000171
 On Iteration in Bisection 18
 a: -0.00000  b:-0.00000

 -0.03060 = (-0.03061 + -0.03060)/2.0
 sum -  nocc_ = -0.00000034
 On Iteration in Bisection 19
 a: -0.00000  b:-0.00000

 -0.03060 = (-0.03060 + -0.03060)/2.0
 sum -  nocc_ = 0.00000034
 On Iteration in Bisection 20
 a: 0.00000  b:-0.00000

 -0.03060 = (-0.03060 + -0.03060)/2.0
 sum -  nocc_ = -0.00000000
 ef = -0.03060 sum = 1.00000 

 Iter: 0  T:    20000.000  val:-0.030604  sumni 0.00000
 ne = 1.0000

 iter:1  failiter:1  energy:     -1.003420175773  total:     -0.751431028826  error:     -0.094551272996
 In Bisection function HOMO = -0.290  LUMO =  1.883

 0.79642 = (-0.29017 + 1.88300)/2.0
 sum -  nocc_ = 2.19243058
 On Iteration in Bisection 0
 a: 2.19243  b:-0.43638

 0.25312 = (-0.29017 + 0.79642)/2.0
 sum -  nocc_ = 1.05041066
 On Iteration in Bisection 1
 a: 1.05041  b:-0.43638

 -0.01852 = (-0.29017 + 0.25312)/2.0
 sum -  nocc_ = 0.81925305
 On Iteration in Bisection 2
 a: 0.81925  b:-0.43638

 -0.15435 = (-0.29017 + -0.01852)/2.0
 sum -  nocc_ = 0.26235914
 On Iteration in Bisection 3
 a: 0.26236  b:-0.43638

 -0.22226 = (-0.29017 + -0.15435)/2.0
 sum -  nocc_ = -0.08930965
 On Iteration in Bisection 4
 a: -0.08931  b:-0.43638

 -0.18830 = (-0.22226 + -0.15435)/2.0
 sum -  nocc_ = 0.08660285
 On Iteration in Bisection 5
 a: 0.08660  b:-0.08931

 -0.20528 = (-0.22226 + -0.18830)/2.0
 sum -  nocc_ = -0.00135427
 On Iteration in Bisection 6
 a: -0.00135  b:-0.08931

 -0.19679 = (-0.20528 + -0.18830)/2.0
 sum -  nocc_ = 0.04261890
 On Iteration in Bisection 7
 a: 0.04262  b:-0.00135

 -0.20103 = (-0.20528 + -0.19679)/2.0
 sum -  nocc_ = 0.02063151
 On Iteration in Bisection 8
 a: 0.02063  b:-0.00135

 -0.20316 = (-0.20528 + -0.20103)/2.0
 sum -  nocc_ = 0.00963851
 On Iteration in Bisection 9
 a: 0.00964  b:-0.00135

 -0.20422 = (-0.20528 + -0.20316)/2.0
 sum -  nocc_ = 0.00414211
 On Iteration in Bisection 10
 a: 0.00414  b:-0.00135

 -0.20475 = (-0.20528 + -0.20422)/2.0
 sum -  nocc_ = 0.00139392
 On Iteration in Bisection 11
 a: 0.00139  b:-0.00135

 -0.20501 = (-0.20528 + -0.20475)/2.0
 sum -  nocc_ = 0.00001982
 On Iteration in Bisection 12
 a: 0.00002  b:-0.00135

 -0.20515 = (-0.20528 + -0.20501)/2.0
 sum -  nocc_ = -0.00066722
 On Iteration in Bisection 13
 a: -0.00067  b:-0.00135

 -0.20508 = (-0.20515 + -0.20501)/2.0
 sum -  nocc_ = -0.00032370
 On Iteration in Bisection 14
 a: -0.00032  b:-0.00067

 -0.20505 = (-0.20508 + -0.20501)/2.0
 sum -  nocc_ = -0.00015194
 On Iteration in Bisection 15
 a: -0.00015  b:-0.00032

 -0.20503 = (-0.20505 + -0.20501)/2.0
 sum -  nocc_ = -0.00006606
 On Iteration in Bisection 16
 a: -0.00007  b:-0.00015

 -0.20502 = (-0.20503 + -0.20501)/2.0
 sum -  nocc_ = -0.00002312
 On Iteration in Bisection 17
 a: -0.00002  b:-0.00007

 -0.20502 = (-0.20502 + -0.20501)/2.0
 sum -  nocc_ = -0.00000165
 On Iteration in Bisection 18
 a: -0.00000  b:-0.00002

 -0.20502 = (-0.20502 + -0.20501)/2.0
 sum -  nocc_ = 0.00000909
 On Iteration in Bisection 19
 a: 0.00001  b:-0.00000

 -0.20502 = (-0.20502 + -0.20502)/2.0
 sum -  nocc_ = 0.00000372
 On Iteration in Bisection 20
 a: 0.00000  b:-0.00000

 -0.20502 = (-0.20502 + -0.20502)/2.0
 sum -  nocc_ = 0.00000104
 On Iteration in Bisection 21
 a: 0.00000  b:-0.00000

 -0.20502 = (-0.20502 + -0.20502)/2.0
 sum -  nocc_ = -0.00000031
 On Iteration in Bisection 22
 a: -0.00000  b:-0.00000

 -0.20502 = (-0.20502 + -0.20502)/2.0
 sum -  nocc_ = 0.00000037
 On Iteration in Bisection 23
 a: 0.00000  b:-0.00000

 -0.20502 = (-0.20502 + -0.20502)/2.0
 sum -  nocc_ = 0.00000003
 On Iteration in Bisection 24
 a: 0.00000  b:-0.00000

 -0.20502 = (-0.20502 + -0.20502)/2.0
 sum -  nocc_ = -0.00000014
 On Iteration in Bisection 25
 a: -0.00000  b:-0.00000

 -0.20502 = (-0.20502 + -0.20502)/2.0
 sum -  nocc_ = -0.00000005
 On Iteration in Bisection 26
 a: -0.00000  b:-0.00000

 -0.20502 = (-0.20502 + -0.20502)/2.0
 sum -  nocc_ = -0.00000001
 On Iteration in Bisection 27
 a: -0.00000  b:-0.00000

 -0.20502 = (-0.20502 + -0.20502)/2.0
 sum -  nocc_ = 0.00000001
 ef = -0.20502 sum = 1.00000 

 Iter: 1  T:    20000.000  val:-0.205017  sumni 0.00000
 ne = 1.0000

 iter:2  failiter:2  energy:     -1.009914980433  total:     -0.757925833485  error:     -0.006494804660
 In Bisection function HOMO = -0.310  LUMO =  1.720

 0.70455 = (-0.31048 + 1.71958)/2.0
 sum -  nocc_ = 2.19827603
 On Iteration in Bisection 0
 a: 2.19828  b:-0.46303

 0.19704 = (-0.31048 + 0.70455)/2.0
 sum -  nocc_ = 0.99456350
 On Iteration in Bisection 1
 a: 0.99456  b:-0.46303

 -0.05672 = (-0.31048 + 0.19704)/2.0
 sum -  nocc_ = 0.66066320
 On Iteration in Bisection 2
 a: 0.66066  b:-0.46303

 -0.18360 = (-0.31048 + -0.05672)/2.0
 sum -  nocc_ = 0.10271295
 On Iteration in Bisection 3
 a: 0.10271  b:-0.46303

 -0.24704 = (-0.31048 + -0.18360)/2.0
 sum -  nocc_ = -0.17397276
 On Iteration in Bisection 4
 a: -0.17397  b:-0.46303

 -0.21532 = (-0.24704 + -0.18360)/2.0
 sum -  nocc_ = -0.03493692
 On Iteration in Bisection 5
 a: -0.03494  b:-0.17397

 -0.19946 = (-0.21532 + -0.18360)/2.0
 sum -  nocc_ = 0.03370669
 On Iteration in Bisection 6
 a: 0.03371  b:-0.03494

 -0.20739 = (-0.21532 + -0.19946)/2.0
 sum -  nocc_ = -0.00061430
 On Iteration in Bisection 7
 a: -0.00061  b:-0.03494

 -0.20342 = (-0.20739 + -0.19946)/2.0
 sum -  nocc_ = 0.01654044
 On Iteration in Bisection 8
 a: 0.01654  b:-0.00061

 -0.20541 = (-0.20739 + -0.20342)/2.0
 sum -  nocc_ = 0.00796237
 On Iteration in Bisection 9
 a: 0.00796  b:-0.00061

 -0.20640 = (-0.20739 + -0.20541)/2.0
 sum -  nocc_ = 0.00367395
 On Iteration in Bisection 10
 a: 0.00367  b:-0.00061

 -0.20689 = (-0.20739 + -0.20640)/2.0
 sum -  nocc_ = 0.00152982
 On Iteration in Bisection 11
 a: 0.00153  b:-0.00061

 -0.20714 = (-0.20739 + -0.20689)/2.0
 sum -  nocc_ = 0.00045776
 On Iteration in Bisection 12
 a: 0.00046  b:-0.00061

 -0.20726 = (-0.20739 + -0.20714)/2.0
 sum -  nocc_ = -0.00007827
 On Iteration in Bisection 13
 a: -0.00008  b:-0.00061

 -0.20720 = (-0.20726 + -0.20714)/2.0
 sum -  nocc_ = 0.00018974
 On Iteration in Bisection 14
 a: 0.00019  b:-0.00008

 -0.20723 = (-0.20726 + -0.20720)/2.0
 sum -  nocc_ = 0.00005574
 On Iteration in Bisection 15
 a: 0.00006  b:-0.00008

 -0.20725 = (-0.20726 + -0.20723)/2.0
 sum -  nocc_ = -0.00001127
 On Iteration in Bisection 16
 a: -0.00001  b:-0.00008

 -0.20724 = (-0.20725 + -0.20723)/2.0
 sum -  nocc_ = 0.00002223
 On Iteration in Bisection 17
 a: 0.00002  b:-0.00001

 -0.20724 = (-0.20725 + -0.20724)/2.0
 sum -  nocc_ = 0.00000548
 On Iteration in Bisection 18
 a: 0.00001  b:-0.00001

 -0.20725 = (-0.20725 + -0.20724)/2.0
 sum -  nocc_ = -0.00000289
 On Iteration in Bisection 19
 a: -0.00000  b:-0.00001

 -0.20725 = (-0.20725 + -0.20724)/2.0
 sum -  nocc_ = 0.00000130
 On Iteration in Bisection 20
 a: 0.00000  b:-0.00000

 -0.20725 = (-0.20725 + -0.20725)/2.0
 sum -  nocc_ = -0.00000080
 On Iteration in Bisection 21
 a: -0.00000  b:-0.00000

 -0.20725 = (-0.20725 + -0.20725)/2.0
 sum -  nocc_ = 0.00000025
 On Iteration in Bisection 22
 a: 0.00000  b:-0.00000

 -0.20725 = (-0.20725 + -0.20725)/2.0
 sum -  nocc_ = -0.00000028
 On Iteration in Bisection 23
 a: -0.00000  b:-0.00000

 -0.20725 = (-0.20725 + -0.20725)/2.0
 sum -  nocc_ = -0.00000001
 On Iteration in Bisection 24
 a: -0.00000  b:-0.00000

 -0.20725 = (-0.20725 + -0.20725)/2.0
 sum -  nocc_ = 0.00000012
 On Iteration in Bisection 25
 a: 0.00000  b:-0.00000

 -0.20725 = (-0.20725 + -0.20725)/2.0
 sum -  nocc_ = 0.00000005
 On Iteration in Bisection 26
 a: 0.00000  b:-0.00000

 -0.20725 = (-0.20725 + -0.20725)/2.0
 sum -  nocc_ = 0.00000002
 On Iteration in Bisection 27
 a: 0.00000  b:-0.00000

 -0.20725 = (-0.20725 + -0.20725)/2.0
 sum -  nocc_ = 0.00000000
 ef = -0.20725 sum = 1.00000 

 Iter: 2  T:    20000.000  val:-0.207246  sumni 0.00000
 ne = 1.0000

 iter:3  failiter:3  energy:     -1.041420560023  total:     -0.789431413076  error:     -0.031505579590
 In Bisection function HOMO = -0.338  LUMO =  1.663

 0.66273 = (-0.33774 + 1.66320)/2.0
 sum -  nocc_ = 2.04360447
 On Iteration in Bisection 0
 a: 2.04360  b:-0.48104

 0.16250 = (-0.33774 + 0.66273)/2.0
 sum -  nocc_ = 0.98181580
 On Iteration in Bisection 1
 a: 0.98182  b:-0.48104

 -0.08762 = (-0.33774 + 0.16250)/2.0
 sum -  nocc_ = 0.48182909
 On Iteration in Bisection 2
 a: 0.48183  b:-0.48104

 -0.21268 = (-0.33774 + -0.08762)/2.0
 sum -  nocc_ = 0.00030852
 On Iteration in Bisection 3
 a: 0.00031  b:-0.48104

 -0.27521 = (-0.33774 + -0.21268)/2.0
 sum -  nocc_ = -0.22213282
 On Iteration in Bisection 4
 a: -0.22213  b:-0.48104

 -0.24395 = (-0.27521 + -0.21268)/2.0
 sum -  nocc_ = -0.10696144
 On Iteration in Bisection 5
 a: -0.10696  b:-0.22213

 -0.22831 = (-0.24395 + -0.21268)/2.0
 sum -  nocc_ = -0.05277461
 On Iteration in Bisection 6
 a: -0.05277  b:-0.10696

 -0.22050 = (-0.22831 + -0.21268)/2.0
 sum -  nocc_ = -0.02616259
 On Iteration in Bisection 7
 a: -0.02616  b:-0.05277

 -0.21659 = (-0.22050 + -0.21268)/2.0
 sum -  nocc_ = -0.01291828
 On Iteration in Bisection 8
 a: -0.01292  b:-0.02616

 -0.21464 = (-0.21659 + -0.21268)/2.0
 sum -  nocc_ = -0.00630381
 On Iteration in Bisection 9
 a: -0.00630  b:-0.01292

 -0.21366 = (-0.21464 + -0.21268)/2.0
 sum -  nocc_ = -0.00299752
 On Iteration in Bisection 10
 a: -0.00300  b:-0.00630

 -0.21317 = (-0.21366 + -0.21268)/2.0
 sum -  nocc_ = -0.00134449
 On Iteration in Bisection 11
 a: -0.00134  b:-0.00300

 -0.21293 = (-0.21317 + -0.21268)/2.0
 sum -  nocc_ = -0.00051798
 On Iteration in Bisection 12
 a: -0.00052  b:-0.00134

 -0.21280 = (-0.21293 + -0.21268)/2.0
 sum -  nocc_ = -0.00010473
 On Iteration in Bisection 13
 a: -0.00010  b:-0.00052

 -0.21274 = (-0.21280 + -0.21268)/2.0
 sum -  nocc_ = 0.00010189
 On Iteration in Bisection 14
 a: 0.00010  b:-0.00010

 -0.21277 = (-0.21280 + -0.21274)/2.0
 sum -  nocc_ = -0.00000142
 On Iteration in Bisection 15
 a: -0.00000  b:-0.00010

 -0.21276 = (-0.21277 + -0.21274)/2.0
 sum -  nocc_ = 0.00005024
 On Iteration in Bisection 16
 a: 0.00005  b:-0.00000

 -0.21277 = (-0.21277 + -0.21276)/2.0
 sum -  nocc_ = 0.00002441
 On Iteration in Bisection 17
 a: 0.00002  b:-0.00000

 -0.21277 = (-0.21277 + -0.21277)/2.0
 sum -  nocc_ = 0.00001150
 On Iteration in Bisection 18
 a: 0.00001  b:-0.00000

 -0.21277 = (-0.21277 + -0.21277)/2.0
 sum -  nocc_ = 0.00000504
 On Iteration in Bisection 19
 a: 0.00001  b:-0.00000

 -0.21277 = (-0.21277 + -0.21277)/2.0
 sum -  nocc_ = 0.00000181
 On Iteration in Bisection 20
 a: 0.00000  b:-0.00000

 -0.21277 = (-0.21277 + -0.21277)/2.0
 sum -  nocc_ = 0.00000020
 On Iteration in Bisection 21
 a: 0.00000  b:-0.00000

 -0.21277 = (-0.21277 + -0.21277)/2.0
 sum -  nocc_ = -0.00000061
 On Iteration in Bisection 22
 a: -0.00000  b:-0.00000

 -0.21277 = (-0.21277 + -0.21277)/2.0
 sum -  nocc_ = -0.00000021
 On Iteration in Bisection 23
 a: -0.00000  b:-0.00000

 -0.21277 = (-0.21277 + -0.21277)/2.0
 sum -  nocc_ = -0.00000001
 ef = -0.21277 sum = 1.00000 

 Iter: 3  T:    20000.000  val:-0.212773  sumni 0.00000
 ne = 1.0000

 iter:4  failiter:4  energy:     -1.076985303787  total:     -0.824996156840  error:     -0.035564743764
 In Bisection function HOMO = -0.350  LUMO =  1.651

 0.65027 = (-0.35034 + 1.65089)/2.0
 sum -  nocc_ = 1.95453484
 On Iteration in Bisection 0
 a: 1.95453  b:-0.48691

 0.14996 = (-0.35034 + 0.65027)/2.0
 sum -  nocc_ = 0.97312900
 On Iteration in Bisection 1
 a: 0.97313  b:-0.48691

 -0.10019 = (-0.35034 + 0.14996)/2.0
 sum -  nocc_ = 0.38897436
 On Iteration in Bisection 2
 a: 0.38897  b:-0.48691

 -0.22527 = (-0.35034 + -0.10019)/2.0
 sum -  nocc_ = -0.03461558
 On Iteration in Bisection 3
 a: -0.03462  b:-0.48691

 -0.16273 = (-0.22527 + -0.10019)/2.0
 sum -  nocc_ = 0.15504177
 On Iteration in Bisection 4
 a: 0.15504  b:-0.03462

 -0.19400 = (-0.22527 + -0.16273)/2.0
 sum -  nocc_ = 0.05731803
 On Iteration in Bisection 5
 a: 0.05732  b:-0.03462

 -0.20963 = (-0.22527 + -0.19400)/2.0
 sum -  nocc_ = 0.01120103
 On Iteration in Bisection 6
 a: 0.01120  b:-0.03462

 -0.21745 = (-0.22527 + -0.20963)/2.0
 sum -  nocc_ = -0.01166793
 On Iteration in Bisection 7
 a: -0.01167  b:-0.03462

 -0.21354 = (-0.21745 + -0.20963)/2.0
 sum -  nocc_ = -0.00023326
 On Iteration in Bisection 8
 a: -0.00023  b:-0.01167

 -0.21159 = (-0.21354 + -0.20963)/2.0
 sum -  nocc_ = 0.00548272
 On Iteration in Bisection 9
 a: 0.00548  b:-0.00023

 -0.21256 = (-0.21354 + -0.21159)/2.0
 sum -  nocc_ = 0.00262459
 On Iteration in Bisection 10
 a: 0.00262  b:-0.00023

 -0.21305 = (-0.21354 + -0.21256)/2.0
 sum -  nocc_ = 0.00119565
 On Iteration in Bisection 11
 a: 0.00120  b:-0.00023

 -0.21330 = (-0.21354 + -0.21305)/2.0
 sum -  nocc_ = 0.00048120
 On Iteration in Bisection 12
 a: 0.00048  b:-0.00023

 -0.21342 = (-0.21354 + -0.21330)/2.0
 sum -  nocc_ = 0.00012397
 On Iteration in Bisection 13
 a: 0.00012  b:-0.00023

 -0.21348 = (-0.21354 + -0.21342)/2.0
 sum -  nocc_ = -0.00005464
 On Iteration in Bisection 14
 a: -0.00005  b:-0.00023

 -0.21345 = (-0.21348 + -0.21342)/2.0
 sum -  nocc_ = 0.00003466
 On Iteration in Bisection 15
 a: 0.00003  b:-0.00005

 -0.21346 = (-0.21348 + -0.21345)/2.0
 sum -  nocc_ = -0.00000999
 On Iteration in Bisection 16
 a: -0.00001  b:-0.00005

 -0.21346 = (-0.21346 + -0.21345)/2.0
 sum -  nocc_ = 0.00001234
 On Iteration in Bisection 17
 a: 0.00001  b:-0.00001

 -0.21346 = (-0.21346 + -0.21346)/2.0
 sum -  nocc_ = 0.00000117
 On Iteration in Bisection 18
 a: 0.00000  b:-0.00001

 -0.21346 = (-0.21346 + -0.21346)/2.0
 sum -  nocc_ = -0.00000441
 On Iteration in Bisection 19
 a: -0.00000  b:-0.00001

 -0.21346 = (-0.21346 + -0.21346)/2.0
 sum -  nocc_ = -0.00000162
 On Iteration in Bisection 20
 a: -0.00000  b:-0.00000

 -0.21346 = (-0.21346 + -0.21346)/2.0
 sum -  nocc_ = -0.00000022
 On Iteration in Bisection 21
 a: -0.00000  b:-0.00000

 -0.21346 = (-0.21346 + -0.21346)/2.0
 sum -  nocc_ = 0.00000048
 On Iteration in Bisection 22
 a: 0.00000  b:-0.00000

 -0.21346 = (-0.21346 + -0.21346)/2.0
 sum -  nocc_ = 0.00000013
 On Iteration in Bisection 23
 a: 0.00000  b:-0.00000

 -0.21346 = (-0.21346 + -0.21346)/2.0
 sum -  nocc_ = -0.00000005
 On Iteration in Bisection 24
 a: -0.00000  b:-0.00000

 -0.21346 = (-0.21346 + -0.21346)/2.0
 sum -  nocc_ = 0.00000004
 On Iteration in Bisection 25
 a: 0.00000  b:-0.00000

 -0.21346 = (-0.21346 + -0.21346)/2.0
 sum -  nocc_ = -0.00000000
 ef = -0.21346 sum = 1.00000 

 Iter: 4  T:    20000.000  val:-0.213461  sumni 0.00000
 ne = 1.0000

 iter:5  failiter:5  energy:     -1.093874133030  total:     -0.841884986083  error:     -0.016888829243
 In Bisection function HOMO = -0.355  LUMO =  1.650

 0.64732 = (-0.35492 + 1.64957)/2.0
 sum -  nocc_ = 1.92963425
 On Iteration in Bisection 0
 a: 1.92963  b:-0.48864

 0.14620 = (-0.35492 + 0.64732)/2.0
 sum -  nocc_ = 0.96939122
 On Iteration in Bisection 1
 a: 0.96939  b:-0.48864

 -0.10436 = (-0.35492 + 0.14620)/2.0
 sum -  nocc_ = 0.35641715
 On Iteration in Bisection 2
 a: 0.35642  b:-0.48864

 -0.22964 = (-0.35492 + -0.10436)/2.0
 sum -  nocc_ = -0.04482585
 On Iteration in Bisection 3
 a: -0.04483  b:-0.48864

 -0.16700 = (-0.22964 + -0.10436)/2.0
 sum -  nocc_ = 0.13363066
 On Iteration in Bisection 4
 a: 0.13363  b:-0.04483

 -0.19832 = (-0.22964 + -0.16700)/2.0
 sum -  nocc_ = 0.04207649
 On Iteration in Bisection 5
 a: 0.04208  b:-0.04483

 -0.21398 = (-0.22964 + -0.19832)/2.0
 sum -  nocc_ = -0.00135517
 On Iteration in Bisection 6
 a: -0.00136  b:-0.04483

 -0.20615 = (-0.21398 + -0.19832)/2.0
 sum -  nocc_ = 0.02028741
 On Iteration in Bisection 7
 a: 0.02029  b:-0.00136

 -0.21007 = (-0.21398 + -0.20615)/2.0
 sum -  nocc_ = 0.00945754
 On Iteration in Bisection 8
 a: 0.00946  b:-0.00136

 -0.21202 = (-0.21398 + -0.21007)/2.0
 sum -  nocc_ = 0.00405027
 On Iteration in Bisection 9
 a: 0.00405  b:-0.00136

 -0.21300 = (-0.21398 + -0.21202)/2.0
 sum -  nocc_ = 0.00134747
 On Iteration in Bisection 10
 a: 0.00135  b:-0.00136

 -0.21349 = (-0.21398 + -0.21300)/2.0
 sum -  nocc_ = -0.00000385
 On Iteration in Bisection 11
 a: -0.00000  b:-0.00136

 -0.21325 = (-0.21349 + -0.21300)/2.0
 sum -  nocc_ = 0.00067181
 On Iteration in Bisection 12
 a: 0.00067  b:-0.00000

 -0.21337 = (-0.21349 + -0.21325)/2.0
 sum -  nocc_ = 0.00033398
 On Iteration in Bisection 13
 a: 0.00033  b:-0.00000

 -0.21343 = (-0.21349 + -0.21337)/2.0
 sum -  nocc_ = 0.00016507
 On Iteration in Bisection 14
 a: 0.00017  b:-0.00000

 -0.21346 = (-0.21349 + -0.21343)/2.0
 sum -  nocc_ = 0.00008061
 On Iteration in Bisection 15
 a: 0.00008  b:-0.00000

 -0.21348 = (-0.21349 + -0.21346)/2.0
 sum -  nocc_ = 0.00003838
 On Iteration in Bisection 16
 a: 0.00004  b:-0.00000

 -0.21348 = (-0.21349 + -0.21348)/2.0
 sum -  nocc_ = 0.00001727
 On Iteration in Bisection 17
 a: 0.00002  b:-0.00000

 -0.21349 = (-0.21349 + -0.21348)/2.0
 sum -  nocc_ = 0.00000671
 On Iteration in Bisection 18
 a: 0.00001  b:-0.00000

 -0.21349 = (-0.21349 + -0.21349)/2.0
 sum -  nocc_ = 0.00000143
 On Iteration in Bisection 19
 a: 0.00000  b:-0.00000

 -0.21349 = (-0.21349 + -0.21349)/2.0
 sum -  nocc_ = -0.00000121
 On Iteration in Bisection 20
 a: -0.00000  b:-0.00000

 -0.21349 = (-0.21349 + -0.21349)/2.0
 sum -  nocc_ = 0.00000011
 On Iteration in Bisection 21
 a: 0.00000  b:-0.00000

 -0.21349 = (-0.21349 + -0.21349)/2.0
 sum -  nocc_ = -0.00000055
 On Iteration in Bisection 22
 a: -0.00000  b:-0.00000

 -0.21349 = (-0.21349 + -0.21349)/2.0
 sum -  nocc_ = -0.00000022
 On Iteration in Bisection 23
 a: -0.00000  b:-0.00000

 -0.21349 = (-0.21349 + -0.21349)/2.0
 sum -  nocc_ = -0.00000005
 On Iteration in Bisection 24
 a: -0.00000  b:-0.00000

 -0.21349 = (-0.21349 + -0.21349)/2.0
 sum -  nocc_ = 0.00000003
 On Iteration in Bisection 25
 a: 0.00000  b:-0.00000

 -0.21349 = (-0.21349 + -0.21349)/2.0
 sum -  nocc_ = -0.00000001
 On Iteration in Bisection 26
 a: -0.00000  b:-0.00000

 -0.21349 = (-0.21349 + -0.21349)/2.0
 sum -  nocc_ = 0.00000001
 ef = -0.21349 sum = 1.00000 

 Iter: 5  T:    20000.000  val:-0.213490  sumni 0.00000
 ne = 1.0000

 iter:6  failiter:6  energy:     -1.100063343821  total:     -0.848074196873  error:     -0.006189210790
 In Bisection function HOMO = -0.356  LUMO =  1.650

 0.64660 = (-0.35638 + 1.64958)/2.0
 sum -  nocc_ = 1.92297358
 On Iteration in Bisection 0
 a: 1.92297  b:-0.48916

 0.14511 = (-0.35638 + 0.64660)/2.0
 sum -  nocc_ = 0.96810074
 On Iteration in Bisection 1
 a: 0.96810  b:-0.48916

 -0.10564 = (-0.35638 + 0.14511)/2.0
 sum -  nocc_ = 0.34602846
 On Iteration in Bisection 2
 a: 0.34603  b:-0.48916

 -0.23101 = (-0.35638 + -0.10564)/2.0
 sum -  nocc_ = -0.04788240
 On Iteration in Bisection 3
 a: -0.04788  b:-0.48916

 -0.16832 = (-0.23101 + -0.10564)/2.0
 sum -  nocc_ = 0.12703586
 On Iteration in Bisection 4
 a: 0.12704  b:-0.04788

 -0.19967 = (-0.23101 + -0.16832)/2.0
 sum -  nocc_ = 0.03744905
 On Iteration in Bisection 5
 a: 0.03745  b:-0.04788

 -0.21534 = (-0.23101 + -0.19967)/2.0
 sum -  nocc_ = -0.00514089
 On Iteration in Bisection 6
 a: -0.00514  b:-0.04788

 -0.20750 = (-0.21534 + -0.19967)/2.0
 sum -  nocc_ = 0.01609455
 On Iteration in Bisection 7
 a: 0.01609  b:-0.00514

 -0.21142 = (-0.21534 + -0.20750)/2.0
 sum -  nocc_ = 0.00547175
 On Iteration in Bisection 8
 a: 0.00547  b:-0.00514

 -0.21338 = (-0.21534 + -0.21142)/2.0
 sum -  nocc_ = 0.00016539
 On Iteration in Bisection 9
 a: 0.00017  b:-0.00514

 -0.21436 = (-0.21534 + -0.21338)/2.0
 sum -  nocc_ = -0.00248761
 On Iteration in Bisection 10
 a: -0.00249  b:-0.00514

 -0.21387 = (-0.21436 + -0.21338)/2.0
 sum -  nocc_ = -0.00116109
 On Iteration in Bisection 11
 a: -0.00116  b:-0.00249

 -0.21362 = (-0.21387 + -0.21338)/2.0
 sum -  nocc_ = -0.00049785
 On Iteration in Bisection 12
 a: -0.00050  b:-0.00116

 -0.21350 = (-0.21362 + -0.21338)/2.0
 sum -  nocc_ = -0.00016623
 On Iteration in Bisection 13
 a: -0.00017  b:-0.00050

 -0.21344 = (-0.21350 + -0.21338)/2.0
 sum -  nocc_ = -0.00000042
 On Iteration in Bisection 14
 a: -0.00000  b:-0.00017

 -0.21341 = (-0.21344 + -0.21338)/2.0
 sum -  nocc_ = 0.00008248
 On Iteration in Bisection 15
 a: 0.00008  b:-0.00000

 -0.21343 = (-0.21344 + -0.21341)/2.0
 sum -  nocc_ = 0.00004103
 On Iteration in Bisection 16
 a: 0.00004  b:-0.00000

 -0.21343 = (-0.21344 + -0.21343)/2.0
 sum -  nocc_ = 0.00002030
 On Iteration in Bisection 17
 a: 0.00002  b:-0.00000

 -0.21344 = (-0.21344 + -0.21343)/2.0
 sum -  nocc_ = 0.00000994
 On Iteration in Bisection 18
 a: 0.00001  b:-0.00000

 -0.21344 = (-0.21344 + -0.21344)/2.0
 sum -  nocc_ = 0.00000476
 On Iteration in Bisection 19
 a: 0.00000  b:-0.00000

 -0.21344 = (-0.21344 + -0.21344)/2.0
 sum -  nocc_ = 0.00000217
 On Iteration in Bisection 20
 a: 0.00000  b:-0.00000

 -0.21344 = (-0.21344 + -0.21344)/2.0
 sum -  nocc_ = 0.00000087
 On Iteration in Bisection 21
 a: 0.00000  b:-0.00000

 -0.21344 = (-0.21344 + -0.21344)/2.0
 sum -  nocc_ = 0.00000023
 On Iteration in Bisection 22
 a: 0.00000  b:-0.00000

 -0.21344 = (-0.21344 + -0.21344)/2.0
 sum -  nocc_ = -0.00000010
 On Iteration in Bisection 23
 a: -0.00000  b:-0.00000

 -0.21344 = (-0.21344 + -0.21344)/2.0
 sum -  nocc_ = 0.00000006
 On Iteration in Bisection 24
 a: 0.00000  b:-0.00000

 -0.21344 = (-0.21344 + -0.21344)/2.0
 sum -  nocc_ = -0.00000002
 On Iteration in Bisection 25
 a: -0.00000  b:-0.00000

 -0.21344 = (-0.21344 + -0.21344)/2.0
 sum -  nocc_ = 0.00000002
 On Iteration in Bisection 26
 a: 0.00000  b:-0.00000

 -0.21344 = (-0.21344 + -0.21344)/2.0
 sum -  nocc_ = 0.00000000
 ef = -0.21344 sum = 1.00000 

 Iter: 6  T:    20000.000  val:-0.213441  sumni 0.00000
 ne = 1.0000

 iter:7  failiter:7  energy:     -1.102059453642  total:     -0.850070306694  error:     -0.001996109821
 In Bisection function HOMO = -0.357  LUMO =  1.650

 0.64641 = (-0.35683 + 1.64965)/2.0
 sum -  nocc_ = 1.92107320
 On Iteration in Bisection 0
 a: 1.92107  b:-0.48932

 0.14479 = (-0.35683 + 0.64641)/2.0
 sum -  nocc_ = 0.96768953
 On Iteration in Bisection 1
 a: 0.96769  b:-0.48932

 -0.10602 = (-0.35683 + 0.14479)/2.0
 sum -  nocc_ = 0.34279856
 On Iteration in Bisection 2
 a: 0.34280  b:-0.48932

 -0.23143 = (-0.35683 + -0.10602)/2.0
 sum -  nocc_ = -0.04881301
 On Iteration in Bisection 3
 a: -0.04881  b:-0.48932

 -0.16873 = (-0.23143 + -0.10602)/2.0
 sum -  nocc_ = 0.12500816
 On Iteration in Bisection 4
 a: 0.12501  b:-0.04881

 -0.20008 = (-0.23143 + -0.16873)/2.0
 sum -  nocc_ = 0.03603301
 On Iteration in Bisection 5
 a: 0.03603  b:-0.04881

 -0.21575 = (-0.23143 + -0.20008)/2.0
 sum -  nocc_ = -0.00629653
 On Iteration in Bisection 6
 a: -0.00630  b:-0.04881

 -0.20792 = (-0.21575 + -0.20008)/2.0
 sum -  nocc_ = 0.01481305
 On Iteration in Bisection 7
 a: 0.01481  b:-0.00630

 -0.21184 = (-0.21575 + -0.20792)/2.0
 sum -  nocc_ = 0.00425428
 On Iteration in Bisection 8
 a: 0.00425  b:-0.00630

 -0.21379 = (-0.21575 + -0.21184)/2.0
 sum -  nocc_ = -0.00102089
 On Iteration in Bisection 9
 a: -0.00102  b:-0.00630

 -0.21281 = (-0.21379 + -0.21184)/2.0
 sum -  nocc_ = 0.00161660
 On Iteration in Bisection 10
 a: 0.00162  b:-0.00102

 -0.21330 = (-0.21379 + -0.21281)/2.0
 sum -  nocc_ = 0.00029785
 On Iteration in Bisection 11
 a: 0.00030  b:-0.00102

 -0.21355 = (-0.21379 + -0.21330)/2.0
 sum -  nocc_ = -0.00036151
 On Iteration in Bisection 12
 a: -0.00036  b:-0.00102

 -0.21343 = (-0.21355 + -0.21330)/2.0
 sum -  nocc_ = -0.00003183
 On Iteration in Bisection 13
 a: -0.00003  b:-0.00036

 -0.21337 = (-0.21343 + -0.21330)/2.0
 sum -  nocc_ = 0.00013301
 On Iteration in Bisection 14
 a: 0.00013  b:-0.00003

 -0.21340 = (-0.21343 + -0.21337)/2.0
 sum -  nocc_ = 0.00005059
 On Iteration in Bisection 15
 a: 0.00005  b:-0.00003

 -0.21341 = (-0.21343 + -0.21340)/2.0
 sum -  nocc_ = 0.00000938
 On Iteration in Bisection 16
 a: 0.00001  b:-0.00003

 -0.21342 = (-0.21343 + -0.21341)/2.0
 sum -  nocc_ = -0.00001122
 On Iteration in Bisection 17
 a: -0.00001  b:-0.00003

 -0.21342 = (-0.21342 + -0.21341)/2.0
 sum -  nocc_ = -0.00000092
 On Iteration in Bisection 18
 a: -0.00000  b:-0.00001

 -0.21341 = (-0.21342 + -0.21341)/2.0
 sum -  nocc_ = 0.00000423
 On Iteration in Bisection 19
 a: 0.00000  b:-0.00000

 -0.21341 = (-0.21342 + -0.21341)/2.0
 sum -  nocc_ = 0.00000165
 On Iteration in Bisection 20
 a: 0.00000  b:-0.00000

 -0.21342 = (-0.21342 + -0.21341)/2.0
 sum -  nocc_ = 0.00000037
 On Iteration in Bisection 21
 a: 0.00000  b:-0.00000

 -0.21342 = (-0.21342 + -0.21342)/2.0
 sum -  nocc_ = -0.00000028
 On Iteration in Bisection 22
 a: -0.00000  b:-0.00000

 -0.21342 = (-0.21342 + -0.21342)/2.0
 sum -  nocc_ = 0.00000004
 On Iteration in Bisection 23
 a: 0.00000  b:-0.00000

 -0.21342 = (-0.21342 + -0.21342)/2.0
 sum -  nocc_ = -0.00000012
 On Iteration in Bisection 24
 a: -0.00000  b:-0.00000

 -0.21342 = (-0.21342 + -0.21342)/2.0
 sum -  nocc_ = -0.00000004
 On Iteration in Bisection 25
 a: -0.00000  b:-0.00000

 -0.21342 = (-0.21342 + -0.21342)/2.0
 sum -  nocc_ = 0.00000000
 ef = -0.21342 sum = 1.00000 

 Iter: 7  T:    20000.000  val:-0.213415  sumni 0.00000
 ne = 1.0000

 iter:8  failiter:8  energy:     -1.102680114185  total:     -0.850690967237  error:     -0.000620660544
 In Bisection function HOMO = -0.357  LUMO =  1.650

 0.64635 = (-0.35697 + 1.64967)/2.0
 sum -  nocc_ = 1.92050682
 On Iteration in Bisection 0
 a: 1.92051  b:-0.48937

 0.14469 = (-0.35697 + 0.64635)/2.0
 sum -  nocc_ = 0.96756161
 On Iteration in Bisection 1
 a: 0.96756  b:-0.48937

 -0.10614 = (-0.35697 + 0.14469)/2.0
 sum -  nocc_ = 0.34180086
 On Iteration in Bisection 2
 a: 0.34180  b:-0.48937

 -0.23156 = (-0.35697 + -0.10614)/2.0
 sum -  nocc_ = -0.04909855
 On Iteration in Bisection 3
 a: -0.04910  b:-0.48937

 -0.16885 = (-0.23156 + -0.10614)/2.0
 sum -  nocc_ = 0.12438395
 On Iteration in Bisection 4
 a: 0.12438  b:-0.04910

 -0.20020 = (-0.23156 + -0.16885)/2.0
 sum -  nocc_ = 0.03559777
 On Iteration in Bisection 5
 a: 0.03560  b:-0.04910

 -0.21588 = (-0.23156 + -0.20020)/2.0
 sum -  nocc_ = -0.00665144
 On Iteration in Bisection 6
 a: -0.00665  b:-0.04910

 -0.20804 = (-0.21588 + -0.20020)/2.0
 sum -  nocc_ = 0.01441931
 On Iteration in Bisection 7
 a: 0.01442  b:-0.00665

 -0.21196 = (-0.21588 + -0.20804)/2.0
 sum -  nocc_ = 0.00388030
 On Iteration in Bisection 8
 a: 0.00388  b:-0.00665

 -0.21392 = (-0.21588 + -0.21196)/2.0
 sum -  nocc_ = -0.00138524
 On Iteration in Bisection 9
 a: -0.00139  b:-0.00665

 -0.21294 = (-0.21392 + -0.21196)/2.0
 sum -  nocc_ = 0.00124745
 On Iteration in Bisection 10
 a: 0.00125  b:-0.00139

 -0.21343 = (-0.21392 + -0.21294)/2.0
 sum -  nocc_ = -0.00006889
 On Iteration in Bisection 11
 a: -0.00007  b:-0.00139

 -0.21319 = (-0.21343 + -0.21294)/2.0
 sum -  nocc_ = 0.00058928
 On Iteration in Bisection 12
 a: 0.00059  b:-0.00007

 -0.21331 = (-0.21343 + -0.21319)/2.0
 sum -  nocc_ = 0.00026019
 On Iteration in Bisection 13
 a: 0.00026  b:-0.00007

 -0.21337 = (-0.21343 + -0.21331)/2.0
 sum -  nocc_ = 0.00009565
 On Iteration in Bisection 14
 a: 0.00010  b:-0.00007

 -0.21340 = (-0.21343 + -0.21337)/2.0
 sum -  nocc_ = 0.00001338
 On Iteration in Bisection 15
 a: 0.00001  b:-0.00007

 -0.21342 = (-0.21343 + -0.21340)/2.0
 sum -  nocc_ = -0.00002776
 On Iteration in Bisection 16
 a: -0.00003  b:-0.00007

 -0.21341 = (-0.21342 + -0.21340)/2.0
 sum -  nocc_ = -0.00000719
 On Iteration in Bisection 17
 a: -0.00001  b:-0.00003

 -0.21340 = (-0.21341 + -0.21340)/2.0
 sum -  nocc_ = 0.00000309
 On Iteration in Bisection 18
 a: 0.00000  b:-0.00001

 -0.21341 = (-0.21341 + -0.21340)/2.0
 sum -  nocc_ = -0.00000205
 On Iteration in Bisection 19
 a: -0.00000  b:-0.00001

 -0.21341 = (-0.21341 + -0.21340)/2.0
 sum -  nocc_ = 0.00000052
 On Iteration in Bisection 20
 a: 0.00000  b:-0.00000

 -0.21341 = (-0.21341 + -0.21341)/2.0
 sum -  nocc_ = -0.00000076
 On Iteration in Bisection 21
 a: -0.00000  b:-0.00000

 -0.21341 = (-0.21341 + -0.21341)/2.0
 sum -  nocc_ = -0.00000012
 On Iteration in Bisection 22
 a: -0.00000  b:-0.00000

 -0.21341 = (-0.21341 + -0.21341)/2.0
 sum -  nocc_ = 0.00000020
 On Iteration in Bisection 23
 a: 0.00000  b:-0.00000

 -0.21341 = (-0.21341 + -0.21341)/2.0
 sum -  nocc_ = 0.00000004
 On Iteration in Bisection 24
 a: 0.00000  b:-0.00000

 -0.21341 = (-0.21341 + -0.21341)/2.0
 sum -  nocc_ = -0.00000004
 On Iteration in Bisection 25
 a: -0.00000  b:-0.00000

 -0.21341 = (-0.21341 + -0.21341)/2.0
 sum -  nocc_ = 0.00000000
 ef = -0.21341 sum = 1.00000 

 Iter: 8  T:    20000.000  val:-0.213406  sumni 0.00000
 ne = 1.0000

 iter:9  failiter:9  energy:     -1.102871199359  total:     -0.850882052411  error:     -0.000191085174
 In Bisection function HOMO = -0.357  LUMO =  1.650

 0.64633 = (-0.35702 + 1.64968)/2.0
 sum -  nocc_ = 1.92033472
 On Iteration in Bisection 0
 a: 1.92033  b:-0.48939

 0.14466 = (-0.35702 + 0.64633)/2.0
 sum -  nocc_ = 0.96752209
 On Iteration in Bisection 1
 a: 0.96752  b:-0.48939

 -0.10618 = (-0.35702 + 0.14466)/2.0
 sum -  nocc_ = 0.34149319
 On Iteration in Bisection 2
 a: 0.34149  b:-0.48939

 -0.23160 = (-0.35702 + -0.10618)/2.0
 sum -  nocc_ = -0.04918641
 On Iteration in Bisection 3
 a: -0.04919  b:-0.48939

 -0.16889 = (-0.23160 + -0.10618)/2.0
 sum -  nocc_ = 0.12419165
 On Iteration in Bisection 4
 a: 0.12419  b:-0.04919

 -0.20024 = (-0.23160 + -0.16889)/2.0
 sum -  nocc_ = 0.03546375
 On Iteration in Bisection 5
 a: 0.03546  b:-0.04919

 -0.21592 = (-0.23160 + -0.20024)/2.0
 sum -  nocc_ = -0.00676069
 On Iteration in Bisection 6
 a: -0.00676  b:-0.04919

 -0.20808 = (-0.21592 + -0.20024)/2.0
 sum -  nocc_ = 0.01429810
 On Iteration in Bisection 7
 a: 0.01430  b:-0.00676

 -0.21200 = (-0.21592 + -0.20808)/2.0
 sum -  nocc_ = 0.00376517
 On Iteration in Bisection 8
 a: 0.00377  b:-0.00676

 -0.21396 = (-0.21592 + -0.21200)/2.0
 sum -  nocc_ = -0.00149741
 On Iteration in Bisection 9
 a: -0.00150  b:-0.00676

 -0.21298 = (-0.21396 + -0.21200)/2.0
 sum -  nocc_ = 0.00113382
 On Iteration in Bisection 10
 a: 0.00113  b:-0.00150

 -0.21347 = (-0.21396 + -0.21298)/2.0
 sum -  nocc_ = -0.00018179
 On Iteration in Bisection 11
 a: -0.00018  b:-0.00150

 -0.21322 = (-0.21347 + -0.21298)/2.0
 sum -  nocc_ = 0.00047601
 On Iteration in Bisection 12
 a: 0.00048  b:-0.00018

 -0.21335 = (-0.21347 + -0.21322)/2.0
 sum -  nocc_ = 0.00014711
 On Iteration in Bisection 13
 a: 0.00015  b:-0.00018

 -0.21341 = (-0.21347 + -0.21335)/2.0
 sum -  nocc_ = -0.00001734
 On Iteration in Bisection 14
 a: -0.00002  b:-0.00018

 -0.21338 = (-0.21341 + -0.21335)/2.0
 sum -  nocc_ = 0.00006488
 On Iteration in Bisection 15
 a: 0.00006  b:-0.00002

 -0.21339 = (-0.21341 + -0.21338)/2.0
 sum -  nocc_ = 0.00002377
 On Iteration in Bisection 16
 a: 0.00002  b:-0.00002

 -0.21340 = (-0.21341 + -0.21339)/2.0
 sum -  nocc_ = 0.00000322
 On Iteration in Bisection 17
 a: 0.00000  b:-0.00002

 -0.21340 = (-0.21341 + -0.21340)/2.0
 sum -  nocc_ = -0.00000706
 On Iteration in Bisection 18
 a: -0.00001  b:-0.00002

 -0.21340 = (-0.21340 + -0.21340)/2.0
 sum -  nocc_ = -0.00000192
 On Iteration in Bisection 19
 a: -0.00000  b:-0.00001

 -0.21340 = (-0.21340 + -0.21340)/2.0
 sum -  nocc_ = 0.00000065
 On Iteration in Bisection 20
 a: 0.00000  b:-0.00000

 -0.21340 = (-0.21340 + -0.21340)/2.0
 sum -  nocc_ = -0.00000064
 On Iteration in Bisection 21
 a: -0.00000  b:-0.00000

 -0.21340 = (-0.21340 + -0.21340)/2.0
 sum -  nocc_ = 0.00000000
 ef = -0.21340 sum = 1.00000 

 Iter: 9  T:    20000.000  val:-0.213402  sumni 0.00000
 ne = 1.0000

 iter:10  failiter:10  energy:     -1.102929967259  total:     -0.850940820311  error:     -0.000058767900
 In Bisection function HOMO = -0.357  LUMO =  1.650

 0.64633 = (-0.35703 + 1.64969)/2.0
 sum -  nocc_ = 1.92028200
 On Iteration in Bisection 0
 a: 1.92028  b:-0.48939

 0.14465 = (-0.35703 + 0.64633)/2.0
 sum -  nocc_ = 0.96750990
 On Iteration in Bisection 1
 a: 0.96751  b:-0.48939

 -0.10619 = (-0.35703 + 0.14465)/2.0
 sum -  nocc_ = 0.34139834
 On Iteration in Bisection 2
 a: 0.34140  b:-0.48939

 -0.23161 = (-0.35703 + -0.10619)/2.0
 sum -  nocc_ = -0.04921348
 On Iteration in Bisection 3
 a: -0.04921  b:-0.48939

 -0.16890 = (-0.23161 + -0.10619)/2.0
 sum -  nocc_ = 0.12413238
 On Iteration in Bisection 4
 a: 0.12413  b:-0.04921

 -0.20025 = (-0.23161 + -0.16890)/2.0
 sum -  nocc_ = 0.03542246
 On Iteration in Bisection 5
 a: 0.03542  b:-0.04921

 -0.21593 = (-0.23161 + -0.20025)/2.0
 sum -  nocc_ = -0.00679435
 On Iteration in Bisection 6
 a: -0.00679  b:-0.04921

 -0.20809 = (-0.21593 + -0.20025)/2.0
 sum -  nocc_ = 0.01426075
 On Iteration in Bisection 7
 a: 0.01426  b:-0.00679

 -0.21201 = (-0.21593 + -0.20809)/2.0
 sum -  nocc_ = 0.00372970
 On Iteration in Bisection 8
 a: 0.00373  b:-0.00679

 -0.21397 = (-0.21593 + -0.21201)/2.0
 sum -  nocc_ = -0.00153196
 On Iteration in Bisection 9
 a: -0.00153  b:-0.00679

 -0.21299 = (-0.21397 + -0.21201)/2.0
 sum -  nocc_ = 0.00109880
 On Iteration in Bisection 10
 a: 0.00110  b:-0.00153

 -0.21348 = (-0.21397 + -0.21299)/2.0
 sum -  nocc_ = -0.00021658
 On Iteration in Bisection 11
 a: -0.00022  b:-0.00153

 -0.21324 = (-0.21348 + -0.21299)/2.0
 sum -  nocc_ = 0.00044111
 On Iteration in Bisection 12
 a: 0.00044  b:-0.00022

 -0.21336 = (-0.21348 + -0.21324)/2.0
 sum -  nocc_ = 0.00011227
 On Iteration in Bisection 13
 a: 0.00011  b:-0.00022

 -0.21342 = (-0.21348 + -0.21336)/2.0
 sum -  nocc_ = -0.00005215
 On Iteration in Bisection 14
 a: -0.00005  b:-0.00022

 -0.21339 = (-0.21342 + -0.21336)/2.0
 sum -  nocc_ = 0.00003006
 On Iteration in Bisection 15
 a: 0.00003  b:-0.00005

 -0.21341 = (-0.21342 + -0.21339)/2.0
 sum -  nocc_ = -0.00001105
 On Iteration in Bisection 16
 a: -0.00001  b:-0.00005

 -0.21340 = (-0.21341 + -0.21339)/2.0
 sum -  nocc_ = 0.00000950
 On Iteration in Bisection 17
 a: 0.00001  b:-0.00001

 -0.21340 = (-0.21341 + -0.21340)/2.0
 sum -  nocc_ = -0.00000077
 On Iteration in Bisection 18
 a: -0.00000  b:-0.00001

 -0.21340 = (-0.21340 + -0.21340)/2.0
 sum -  nocc_ = 0.00000437
 On Iteration in Bisection 19
 a: 0.00000  b:-0.00000

 -0.21340 = (-0.21340 + -0.21340)/2.0
 sum -  nocc_ = 0.00000180
 On Iteration in Bisection 20
 a: 0.00000  b:-0.00000

 -0.21340 = (-0.21340 + -0.21340)/2.0
 sum -  nocc_ = 0.00000051
 On Iteration in Bisection 21
 a: 0.00000  b:-0.00000

 -0.21340 = (-0.21340 + -0.21340)/2.0
 sum -  nocc_ = -0.00000013
 On Iteration in Bisection 22
 a: -0.00000  b:-0.00000

 -0.21340 = (-0.21340 + -0.21340)/2.0
 sum -  nocc_ = 0.00000019
 On Iteration in Bisection 23
 a: 0.00000  b:-0.00000

 -0.21340 = (-0.21340 + -0.21340)/2.0
 sum -  nocc_ = 0.00000003
 On Iteration in Bisection 24
 a: 0.00000  b:-0.00000

 -0.21340 = (-0.21340 + -0.21340)/2.0
 sum -  nocc_ = -0.00000005
 On Iteration in Bisection 25
 a: -0.00000  b:-0.00000

 -0.21340 = (-0.21340 + -0.21340)/2.0
 sum -  nocc_ = -0.00000001
 ef = -0.21340 sum = 1.00000 

 Iter: 10  T:    20000.000  val:-0.213401  sumni 0.00000
 ne = 1.0000

 iter:11  failiter:11  energy:     -1.102948033495  total:     -0.850958886547  error:     -0.000018066236
 In Bisection function HOMO = -0.357  LUMO =  1.650

 0.64633 = (-0.35703 + 1.64969)/2.0
 sum -  nocc_ = 1.92026580
 On Iteration in Bisection 0
 a: 1.92027  b:-0.48940

 0.14465 = (-0.35703 + 0.64633)/2.0
 sum -  nocc_ = 0.96750614
 On Iteration in Bisection 1
 a: 0.96751  b:-0.48940

 -0.10619 = (-0.35703 + 0.14465)/2.0
 sum -  nocc_ = 0.34136909
 On Iteration in Bisection 2
 a: 0.34137  b:-0.48940

 -0.23161 = (-0.35703 + -0.10619)/2.0
 sum -  nocc_ = -0.04922183
 On Iteration in Bisection 3
 a: -0.04922  b:-0.48940

 -0.16890 = (-0.23161 + -0.10619)/2.0
 sum -  nocc_ = 0.12411411
 On Iteration in Bisection 4
 a: 0.12411  b:-0.04922

 -0.20026 = (-0.23161 + -0.16890)/2.0
 sum -  nocc_ = 0.03540972
 On Iteration in Bisection 5
 a: 0.03541  b:-0.04922

 -0.21594 = (-0.23161 + -0.20026)/2.0
 sum -  nocc_ = -0.00680472
 On Iteration in Bisection 6
 a: -0.00680  b:-0.04922

 -0.20810 = (-0.21594 + -0.20026)/2.0
 sum -  nocc_ = 0.01424923
 On Iteration in Bisection 7
 a: 0.01425  b:-0.00680

 -0.21202 = (-0.21594 + -0.20810)/2.0
 sum -  nocc_ = 0.00371877
 On Iteration in Bisection 8
 a: 0.00372  b:-0.00680

 -0.21398 = (-0.21594 + -0.21202)/2.0
 sum -  nocc_ = -0.00154262
 On Iteration in Bisection 9
 a: -0.00154  b:-0.00680

 -0.21300 = (-0.21398 + -0.21202)/2.0
 sum -  nocc_ = 0.00108801
 On Iteration in Bisection 10
 a: 0.00109  b:-0.00154

 -0.21349 = (-0.21398 + -0.21300)/2.0
 sum -  nocc_ = -0.00022730
 On Iteration in Bisection 11
 a: -0.00023  b:-0.00154

 -0.21324 = (-0.21349 + -0.21300)/2.0
 sum -  nocc_ = 0.00043035
 On Iteration in Bisection 12
 a: 0.00043  b:-0.00023

 -0.21336 = (-0.21349 + -0.21324)/2.0
 sum -  nocc_ = 0.00010153
 On Iteration in Bisection 13
 a: 0.00010  b:-0.00023

 -0.21342 = (-0.21349 + -0.21336)/2.0
 sum -  nocc_ = -0.00006289
 On Iteration in Bisection 14
 a: -0.00006  b:-0.00023

 -0.21339 = (-0.21342 + -0.21336)/2.0
 sum -  nocc_ = 0.00001932
 On Iteration in Bisection 15
 a: 0.00002  b:-0.00006

 -0.21341 = (-0.21342 + -0.21339)/2.0
 sum -  nocc_ = -0.00002178
 On Iteration in Bisection 16
 a: -0.00002  b:-0.00006

 -0.21340 = (-0.21341 + -0.21339)/2.0
 sum -  nocc_ = -0.00000123
 On Iteration in Bisection 17
 a: -0.00000  b:-0.00002

 -0.21340 = (-0.21340 + -0.21339)/2.0
 sum -  nocc_ = 0.00000904
 On Iteration in Bisection 18
 a: 0.00001  b:-0.00000

 -0.21340 = (-0.21340 + -0.21340)/2.0
 sum -  nocc_ = 0.00000391
 On Iteration in Bisection 19
 a: 0.00000  b:-0.00000

 -0.21340 = (-0.21340 + -0.21340)/2.0
 sum -  nocc_ = 0.00000134
 On Iteration in Bisection 20
 a: 0.00000  b:-0.00000

 -0.21340 = (-0.21340 + -0.21340)/2.0
 sum -  nocc_ = 0.00000005
 On Iteration in Bisection 21
 a: 0.00000  b:-0.00000

 -0.21340 = (-0.21340 + -0.21340)/2.0
 sum -  nocc_ = -0.00000059
 On Iteration in Bisection 22
 a: -0.00000  b:-0.00000

 -0.21340 = (-0.21340 + -0.21340)/2.0
 sum -  nocc_ = -0.00000027
 On Iteration in Bisection 23
 a: -0.00000  b:-0.00000

 -0.21340 = (-0.21340 + -0.21340)/2.0
 sum -  nocc_ = -0.00000011
 On Iteration in Bisection 24
 a: -0.00000  b:-0.00000

 -0.21340 = (-0.21340 + -0.21340)/2.0
 sum -  nocc_ = -0.00000003
 On Iteration in Bisection 25
 a: -0.00000  b:-0.00000

 -0.21340 = (-0.21340 + -0.21340)/2.0
 sum -  nocc_ = 0.00000001
 On Iteration in Bisection 26
 a: 0.00000  b:-0.00000

 -0.21340 = (-0.21340 + -0.21340)/2.0
 sum -  nocc_ = -0.00000001
 ef = -0.21340 sum = 1.00000 

 Iter: 11  T:    20000.000  val:-0.213401  sumni 0.00000
 ne = 1.0000

 iter:12  failiter:12  energy:     -1.102953610881  total:     -0.850964463933  error:     -0.000005577386
 In Bisection function HOMO = -0.357  LUMO =  1.650

 0.64633 = (-0.35703 + 1.64969)/2.0
 sum -  nocc_ = 1.92026080
 On Iteration in Bisection 0
 a: 1.92026  b:-0.48940

 0.14465 = (-0.35703 + 0.64633)/2.0
 sum -  nocc_ = 0.96750498
 On Iteration in Bisection 1
 a: 0.96750  b:-0.48940

 -0.10619 = (-0.35703 + 0.14465)/2.0
 sum -  nocc_ = 0.34136008
 On Iteration in Bisection 2
 a: 0.34136  b:-0.48940

 -0.23161 = (-0.35703 + -0.10619)/2.0
 sum -  nocc_ = -0.04922440
 On Iteration in Bisection 3
 a: -0.04922  b:-0.48940

 -0.16890 = (-0.23161 + -0.10619)/2.0
 sum -  nocc_ = 0.12410848
 On Iteration in Bisection 4
 a: 0.12411  b:-0.04922

 -0.20026 = (-0.23161 + -0.16890)/2.0
 sum -  nocc_ = 0.03540580
 On Iteration in Bisection 5
 a: 0.03541  b:-0.04922

 -0.21594 = (-0.23161 + -0.20026)/2.0
 sum -  nocc_ = -0.00680792
 On Iteration in Bisection 6
 a: -0.00681  b:-0.04922

 -0.20810 = (-0.21594 + -0.20026)/2.0
 sum -  nocc_ = 0.01424568
 On Iteration in Bisection 7
 a: 0.01425  b:-0.00681

 -0.21202 = (-0.21594 + -0.20810)/2.0
 sum -  nocc_ = 0.00371540
 On Iteration in Bisection 8
 a: 0.00372  b:-0.00681

 -0.21398 = (-0.21594 + -0.21202)/2.0
 sum -  nocc_ = -0.00154590
 On Iteration in Bisection 9
 a: -0.00155  b:-0.00681

 -0.21300 = (-0.21398 + -0.21202)/2.0
 sum -  nocc_ = 0.00108468
 On Iteration in Bisection 10
 a: 0.00108  b:-0.00155

 -0.21349 = (-0.21398 + -0.21300)/2.0
 sum -  nocc_ = -0.00023061
 On Iteration in Bisection 11
 a: -0.00023  b:-0.00155

 -0.21324 = (-0.21349 + -0.21300)/2.0
 sum -  nocc_ = 0.00042704
 On Iteration in Bisection 12
 a: 0.00043  b:-0.00023

 -0.21336 = (-0.21349 + -0.21324)/2.0
 sum -  nocc_ = 0.00009822
 On Iteration in Bisection 13
 a: 0.00010  b:-0.00023

 -0.21343 = (-0.21349 + -0.21336)/2.0
 sum -  nocc_ = -0.00006620
 On Iteration in Bisection 14
 a: -0.00007  b:-0.00023

 -0.21339 = (-0.21343 + -0.21336)/2.0
 sum -  nocc_ = 0.00001601
 On Iteration in Bisection 15
 a: 0.00002  b:-0.00007

 -0.21341 = (-0.21343 + -0.21339)/2.0
 sum -  nocc_ = -0.00002509
 On Iteration in Bisection 16
 a: -0.00003  b:-0.00007

 -0.21340 = (-0.21341 + -0.21339)/2.0
 sum -  nocc_ = -0.00000454
 On Iteration in Bisection 17
 a: -0.00000  b:-0.00003

 -0.21340 = (-0.21340 + -0.21339)/2.0
 sum -  nocc_ = 0.00000573
 On Iteration in Bisection 18
 a: 0.00001  b:-0.00000

 -0.21340 = (-0.21340 + -0.21340)/2.0
 sum -  nocc_ = 0.00000060
 On Iteration in Bisection 19
 a: 0.00000  b:-0.00000

 -0.21340 = (-0.21340 + -0.21340)/2.0
 sum -  nocc_ = -0.00000197
 On Iteration in Bisection 20
 a: -0.00000  b:-0.00000

 -0.21340 = (-0.21340 + -0.21340)/2.0
 sum -  nocc_ = -0.00000069
 On Iteration in Bisection 21
 a: -0.00000  b:-0.00000

 -0.21340 = (-0.21340 + -0.21340)/2.0
 sum -  nocc_ = -0.00000005
 On Iteration in Bisection 22
 a: -0.00000  b:-0.00000

 -0.21340 = (-0.21340 + -0.21340)/2.0
 sum -  nocc_ = 0.00000028
 On Iteration in Bisection 23
 a: 0.00000  b:-0.00000

 -0.21340 = (-0.21340 + -0.21340)/2.0
 sum -  nocc_ = 0.00000012
 On Iteration in Bisection 24
 a: 0.00000  b:-0.00000

 -0.21340 = (-0.21340 + -0.21340)/2.0
 sum -  nocc_ = 0.00000003
 On Iteration in Bisection 25
 a: 0.00000  b:-0.00000

 -0.21340 = (-0.21340 + -0.21340)/2.0
 sum -  nocc_ = -0.00000001
 ef = -0.21340 sum = 1.00000 

 Iter: 12  T:    20000.000  val:-0.213401  sumni 0.00000
 ne = 1.0000

 iter:13  failiter:13  energy:     -1.102955326835  total:     -0.850966179888  error:     -0.000001715955
 In Bisection function HOMO = -0.357  LUMO =  1.650

 0.64633 = (-0.35703 + 1.64969)/2.0
 sum -  nocc_ = 1.92025927
 On Iteration in Bisection 0
 a: 1.92026  b:-0.48940

 0.14465 = (-0.35703 + 0.64633)/2.0
 sum -  nocc_ = 0.96750463
 On Iteration in Bisection 1
 a: 0.96750  b:-0.48940

 -0.10619 = (-0.35703 + 0.14465)/2.0
 sum -  nocc_ = 0.34135730
 On Iteration in Bisection 2
 a: 0.34136  b:-0.48940

 -0.23161 = (-0.35703 + -0.10619)/2.0
 sum -  nocc_ = -0.04922519
 On Iteration in Bisection 3
 a: -0.04923  b:-0.48940

 -0.16890 = (-0.23161 + -0.10619)/2.0
 sum -  nocc_ = 0.12410674
 On Iteration in Bisection 4
 a: 0.12411  b:-0.04923

 -0.20026 = (-0.23161 + -0.16890)/2.0
 sum -  nocc_ = 0.03540459
 On Iteration in Bisection 5
 a: 0.03540  b:-0.04923

 -0.21594 = (-0.23161 + -0.20026)/2.0
 sum -  nocc_ = -0.00680891
 On Iteration in Bisection 6
 a: -0.00681  b:-0.04923

 -0.20810 = (-0.21594 + -0.20026)/2.0
 sum -  nocc_ = 0.01424459
 On Iteration in Bisection 7
 a: 0.01424  b:-0.00681

 -0.21202 = (-0.21594 + -0.20810)/2.0
 sum -  nocc_ = 0.00371436
 On Iteration in Bisection 8
 a: 0.00371  b:-0.00681

 -0.21398 = (-0.21594 + -0.21202)/2.0
 sum -  nocc_ = -0.00154691
 On Iteration in Bisection 9
 a: -0.00155  b:-0.00681

 -0.21300 = (-0.21398 + -0.21202)/2.0
 sum -  nocc_ = 0.00108366
 On Iteration in Bisection 10
 a: 0.00108  b:-0.00155

[...]
 sum -  nocc_ = 0.12410597
 On Iteration in Bisection 4
 a: 0.12411  b:-0.04923

 -0.20026 = (-0.23161 + -0.16890)/2.0
 sum -  nocc_ = 0.03540405
 On Iteration in Bisection 5
 a: 0.03540  b:-0.04923

 -0.21594 = (-0.23161 + -0.20026)/2.0
 sum -  nocc_ = -0.00680935
 On Iteration in Bisection 6
 a: -0.00681  b:-0.04923

 -0.20810 = (-0.21594 + -0.20026)/2.0
 sum -  nocc_ = 0.01424410
 On Iteration in Bisection 7
 a: 0.01424  b:-0.00681

 -0.21202 = (-0.21594 + -0.20810)/2.0
 sum -  nocc_ = 0.00371389
 On Iteration in Bisection 8
 a: 0.00371  b:-0.00681

 -0.21398 = (-0.21594 + -0.21202)/2.0
 sum -  nocc_ = -0.00154736
 On Iteration in Bisection 9
 a: -0.00155  b:-0.00681

 -0.21300 = (-0.21398 + -0.21202)/2.0
 sum -  nocc_ = 0.00108320
 On Iteration in Bisection 10
 a: 0.00108  b:-0.00155

 -0.21349 = (-0.21398 + -0.21300)/2.0
 sum -  nocc_ = -0.00023208
 On Iteration in Bisection 11
 a: -0.00023  b:-0.00155

 -0.21324 = (-0.21349 + -0.21300)/2.0
 sum -  nocc_ = 0.00042556
 On Iteration in Bisection 12
 a: 0.00043  b:-0.00023

 -0.21336 = (-0.21349 + -0.21324)/2.0
 sum -  nocc_ = 0.00009674
 On Iteration in Bisection 13
 a: 0.00010  b:-0.00023

 -0.21343 = (-0.21349 + -0.21336)/2.0
 sum -  nocc_ = -0.00006767
 On Iteration in Bisection 14
 a: -0.00007  b:-0.00023

 -0.21340 = (-0.21343 + -0.21336)/2.0
 sum -  nocc_ = 0.00001454
 On Iteration in Bisection 15
 a: 0.00001  b:-0.00007

 -0.21341 = (-0.21343 + -0.21340)/2.0
 sum -  nocc_ = -0.00002657
 On Iteration in Bisection 16
 a: -0.00003  b:-0.00007

 -0.21340 = (-0.21341 + -0.21340)/2.0
 sum -  nocc_ = -0.00000602
 On Iteration in Bisection 17
 a: -0.00001  b:-0.00003

 -0.21340 = (-0.21340 + -0.21340)/2.0
 sum -  nocc_ = 0.00000426
 On Iteration in Bisection 18
 a: 0.00000  b:-0.00001

 -0.21340 = (-0.21340 + -0.21340)/2.0
 sum -  nocc_ = -0.00000088
 On Iteration in Bisection 19
 a: -0.00000  b:-0.00001

 -0.21340 = (-0.21340 + -0.21340)/2.0
 sum -  nocc_ = 0.00000169
 On Iteration in Bisection 20
 a: 0.00000  b:-0.00000

 -0.21340 = (-0.21340 + -0.21340)/2.0
 sum -  nocc_ = 0.00000041
 On Iteration in Bisection 21
 a: 0.00000  b:-0.00000

 -0.21340 = (-0.21340 + -0.21340)/2.0
 sum -  nocc_ = -0.00000024
 On Iteration in Bisection 22
 a: -0.00000  b:-0.00000

 -0.21340 = (-0.21340 + -0.21340)/2.0
 sum -  nocc_ = 0.00000009
 On Iteration in Bisection 23
 a: 0.00000  b:-0.00000

 -0.21340 = (-0.21340 + -0.21340)/2.0
 sum -  nocc_ = -0.00000007
 On Iteration in Bisection 24
 a: -0.00000  b:-0.00000

 -0.21340 = (-0.21340 + -0.21340)/2.0
 sum -  nocc_ = 0.00000001
 ef = -0.21340 sum = 1.00000 

 Iter: 21  T:    20000.000  val:-0.213401  sumni 0.00000
 ne = 1.0000

 iter:22  failiter:22  energy:     -1.102956094593  total:     -0.850966947645  error:     -0.000000000106
 In Bisection function HOMO = -0.357  LUMO =  1.650

 0.64633 = (-0.35703 + 1.64969)/2.0
 sum -  nocc_ = 1.92025858
 On Iteration in Bisection 0
 a: 1.92026  b:-0.48940

 0.14465 = (-0.35703 + 0.64633)/2.0
 sum -  nocc_ = 0.96750447
 On Iteration in Bisection 1
 a: 0.96750  b:-0.48940

 -0.10619 = (-0.35703 + 0.14465)/2.0
 sum -  nocc_ = 0.34135606
 On Iteration in Bisection 2
 a: 0.34136  b:-0.48940

 -0.23161 = (-0.35703 + -0.10619)/2.0
 sum -  nocc_ = -0.04922554
 On Iteration in Bisection 3
 a: -0.04923  b:-0.48940

 -0.16890 = (-0.23161 + -0.10619)/2.0
 sum -  nocc_ = 0.12410597
 On Iteration in Bisection 4
 a: 0.12411  b:-0.04923

 -0.20026 = (-0.23161 + -0.16890)/2.0
 sum -  nocc_ = 0.03540405
 On Iteration in Bisection 5
 a: 0.03540  b:-0.04923

 -0.21594 = (-0.23161 + -0.20026)/2.0
 sum -  nocc_ = -0.00680935
 On Iteration in Bisection 6
 a: -0.00681  b:-0.04923

 -0.20810 = (-0.21594 + -0.20026)/2.0
 sum -  nocc_ = 0.01424410
 On Iteration in Bisection 7
 a: 0.01424  b:-0.00681

 -0.21202 = (-0.21594 + -0.20810)/2.0
 sum -  nocc_ = 0.00371389
 On Iteration in Bisection 8
 a: 0.00371  b:-0.00681

 -0.21398 = (-0.21594 + -0.21202)/2.0
 sum -  nocc_ = -0.00154736
 On Iteration in Bisection 9
 a: -0.00155  b:-0.00681

 -0.21300 = (-0.21398 + -0.21202)/2.0
 sum -  nocc_ = 0.00108320
 On Iteration in Bisection 10
 a: 0.00108  b:-0.00155

 -0.21349 = (-0.21398 + -0.21300)/2.0
 sum -  nocc_ = -0.00023208
 On Iteration in Bisection 11
 a: -0.00023  b:-0.00155

 -0.21324 = (-0.21349 + -0.21300)/2.0
 sum -  nocc_ = 0.00042556
 On Iteration in Bisection 12
 a: 0.00043  b:-0.00023

 -0.21336 = (-0.21349 + -0.21324)/2.0
 sum -  nocc_ = 0.00009674
 On Iteration in Bisection 13
 a: 0.00010  b:-0.00023

 -0.21343 = (-0.21349 + -0.21336)/2.0
 sum -  nocc_ = -0.00006767
 On Iteration in Bisection 14
 a: -0.00007  b:-0.00023

 -0.21340 = (-0.21343 + -0.21336)/2.0
 sum -  nocc_ = 0.00001454
 On Iteration in Bisection 15
 a: 0.00001  b:-0.00007

 -0.21341 = (-0.21343 + -0.21340)/2.0
 sum -  nocc_ = -0.00002657
 On Iteration in Bisection 16
 a: -0.00003  b:-0.00007

 -0.21340 = (-0.21341 + -0.21340)/2.0
 sum -  nocc_ = -0.00000602
 On Iteration in Bisection 17
 a: -0.00001  b:-0.00003

 -0.21340 = (-0.21340 + -0.21340)/2.0
 sum -  nocc_ = 0.00000426
 On Iteration in Bisection 18
 a: 0.00000  b:-0.00001

 -0.21340 = (-0.21340 + -0.21340)/2.0
 sum -  nocc_ = -0.00000088
 On Iteration in Bisection 19
 a: -0.00000  b:-0.00001

 -0.21340 = (-0.21340 + -0.21340)/2.0
 sum -  nocc_ = 0.00000169
 On Iteration in Bisection 20
 a: 0.00000  b:-0.00000

 -0.21340 = (-0.21340 + -0.21340)/2.0
 sum -  nocc_ = 0.00000041
 On Iteration in Bisection 21
 a: 0.00000  b:-0.00000

 -0.21340 = (-0.21340 + -0.21340)/2.0
 sum -  nocc_ = -0.00000024
 On Iteration in Bisection 22
 a: -0.00000  b:-0.00000

 -0.21340 = (-0.21340 + -0.21340)/2.0
 sum -  nocc_ = 0.00000009
 On Iteration in Bisection 23
 a: 0.00000  b:-0.00000

 -0.21340 = (-0.21340 + -0.21340)/2.0
 sum -  nocc_ = -0.00000007
 On Iteration in Bisection 24
 a: -0.00000  b:-0.00000

 -0.21340 = (-0.21340 + -0.21340)/2.0
 sum -  nocc_ = 0.00000001
 ef = -0.21340 sum = 1.00000 

 Iter: 22  T:    20000.000  val:-0.213401  sumni 0.00000
 ne = 1.0000

 iter:23  failiter:23  energy:     -1.102956094625  total:     -0.850966947677  error:     -0.000000000032
 In Bisection function HOMO = -0.357  LUMO =  1.650

 0.64633 = (-0.35703 + 1.64969)/2.0
 sum -  nocc_ = 1.92025858
 On Iteration in Bisection 0
 a: 1.92026  b:-0.48940

 0.14465 = (-0.35703 + 0.64633)/2.0
 sum -  nocc_ = 0.96750447
 On Iteration in Bisection 1
 a: 0.96750  b:-0.48940

 -0.10619 = (-0.35703 + 0.14465)/2.0
 sum -  nocc_ = 0.34135606
 On Iteration in Bisection 2
 a: 0.34136  b:-0.48940

 -0.23161 = (-0.35703 + -0.10619)/2.0
 sum -  nocc_ = -0.04922554
 On Iteration in Bisection 3
 a: -0.04923  b:-0.48940

 -0.16890 = (-0.23161 + -0.10619)/2.0
 sum -  nocc_ = 0.12410597
 On Iteration in Bisection 4
 a: 0.12411  b:-0.04923

 -0.20026 = (-0.23161 + -0.16890)/2.0
 sum -  nocc_ = 0.03540405
 On Iteration in Bisection 5
 a: 0.03540  b:-0.04923

 -0.21594 = (-0.23161 + -0.20026)/2.0
 sum -  nocc_ = -0.00680935
 On Iteration in Bisection 6
 a: -0.00681  b:-0.04923

 -0.20810 = (-0.21594 + -0.20026)/2.0
 sum -  nocc_ = 0.01424410
 On Iteration in Bisection 7
 a: 0.01424  b:-0.00681

 -0.21202 = (-0.21594 + -0.20810)/2.0
 sum -  nocc_ = 0.00371389
 On Iteration in Bisection 8
 a: 0.00371  b:-0.00681

 -0.21398 = (-0.21594 + -0.21202)/2.0
 sum -  nocc_ = -0.00154736
 On Iteration in Bisection 9
 a: -0.00155  b:-0.00681

 -0.21300 = (-0.21398 + -0.21202)/2.0
 sum -  nocc_ = 0.00108320
 On Iteration in Bisection 10
 a: 0.00108  b:-0.00155

 -0.21349 = (-0.21398 + -0.21300)/2.0
 sum -  nocc_ = -0.00023208
 On Iteration in Bisection 11
 a: -0.00023  b:-0.00155

 -0.21324 = (-0.21349 + -0.21300)/2.0
 sum -  nocc_ = 0.00042556
 On Iteration in Bisection 12
 a: 0.00043  b:-0.00023

 -0.21336 = (-0.21349 + -0.21324)/2.0
 sum -  nocc_ = 0.00009674
 On Iteration in Bisection 13
 a: 0.00010  b:-0.00023

 -0.21343 = (-0.21349 + -0.21336)/2.0
 sum -  nocc_ = -0.00006767
 On Iteration in Bisection 14
 a: -0.00007  b:-0.00023

 -0.21340 = (-0.21343 + -0.21336)/2.0
 sum -  nocc_ = 0.00001454
 On Iteration in Bisection 15
 a: 0.00001  b:-0.00007

 -0.21341 = (-0.21343 + -0.21340)/2.0
 sum -  nocc_ = -0.00002657
 On Iteration in Bisection 16
 a: -0.00003  b:-0.00007

 -0.21340 = (-0.21341 + -0.21340)/2.0
 sum -  nocc_ = -0.00000602
 On Iteration in Bisection 17
 a: -0.00001  b:-0.00003

 -0.21340 = (-0.21340 + -0.21340)/2.0
 sum -  nocc_ = 0.00000426
 On Iteration in Bisection 18
 a: 0.00000  b:-0.00001

 -0.21340 = (-0.21340 + -0.21340)/2.0
 sum -  nocc_ = -0.00000088
 On Iteration in Bisection 19
 a: -0.00000  b:-0.00001

 -0.21340 = (-0.21340 + -0.21340)/2.0
 sum -  nocc_ = 0.00000169
 On Iteration in Bisection 20
 a: 0.00000  b:-0.00000

 -0.21340 = (-0.21340 + -0.21340)/2.0
 sum -  nocc_ = 0.00000041
 On Iteration in Bisection 21
 a: 0.00000  b:-0.00000

 -0.21340 = (-0.21340 + -0.21340)/2.0
 sum -  nocc_ = -0.00000024
 On Iteration in Bisection 22
 a: -0.00000  b:-0.00000

 -0.21340 = (-0.21340 + -0.21340)/2.0
 sum -  nocc_ = 0.00000009
 On Iteration in Bisection 23
 a: 0.00000  b:-0.00000

 -0.21340 = (-0.21340 + -0.21340)/2.0
 sum -  nocc_ = -0.00000007
 On Iteration in Bisection 24
 a: -0.00000  b:-0.00000

 -0.21340 = (-0.21340 + -0.21340)/2.0
 sum -  nocc_ = 0.00000001
 ef = -0.21340 sum = 1.00000 

 Iter: 23  T:    20000.000  val:-0.213401  sumni 0.00000
 ne = 1.0000

 iter:24  failiter:24  energy:     -1.102956094635  total:     -0.850966947687  error:     -0.000000000010
 In Bisection function HOMO = -0.357  LUMO =  1.650

 0.64633 = (-0.35703 + 1.64969)/2.0
 sum -  nocc_ = 1.92025858
 On Iteration in Bisection 0
 a: 1.92026  b:-0.48940

 0.14465 = (-0.35703 + 0.64633)/2.0
 sum -  nocc_ = 0.96750447
 On Iteration in Bisection 1
 a: 0.96750  b:-0.48940

 -0.10619 = (-0.35703 + 0.14465)/2.0
 sum -  nocc_ = 0.34135606
 On Iteration in Bisection 2
 a: 0.34136  b:-0.48940

 -0.23161 = (-0.35703 + -0.10619)/2.0
 sum -  nocc_ = -0.04922554
 On Iteration in Bisection 3
 a: -0.04923  b:-0.48940

 -0.16890 = (-0.23161 + -0.10619)/2.0
 sum -  nocc_ = 0.12410597
 On Iteration in Bisection 4
 a: 0.12411  b:-0.04923

 -0.20026 = (-0.23161 + -0.16890)/2.0
 sum -  nocc_ = 0.03540405
 On Iteration in Bisection 5
 a: 0.03540  b:-0.04923

 -0.21594 = (-0.23161 + -0.20026)/2.0
 sum -  nocc_ = -0.00680935
 On Iteration in Bisection 6
 a: -0.00681  b:-0.04923

 -0.20810 = (-0.21594 + -0.20026)/2.0
 sum -  nocc_ = 0.01424410
 On Iteration in Bisection 7
 a: 0.01424  b:-0.00681

 -0.21202 = (-0.21594 + -0.20810)/2.0
 sum -  nocc_ = 0.00371389
 On Iteration in Bisection 8
 a: 0.00371  b:-0.00681

 -0.21398 = (-0.21594 + -0.21202)/2.0
 sum -  nocc_ = -0.00154736
 On Iteration in Bisection 9
 a: -0.00155  b:-0.00681

 -0.21300 = (-0.21398 + -0.21202)/2.0
 sum -  nocc_ = 0.00108320
 On Iteration in Bisection 10
 a: 0.00108  b:-0.00155

 -0.21349 = (-0.21398 + -0.21300)/2.0
 sum -  nocc_ = -0.00023208
 On Iteration in Bisection 11
 a: -0.00023  b:-0.00155

 -0.21324 = (-0.21349 + -0.21300)/2.0
 sum -  nocc_ = 0.00042556
 On Iteration in Bisection 12
 a: 0.00043  b:-0.00023

 -0.21336 = (-0.21349 + -0.21324)/2.0
 sum -  nocc_ = 0.00009674
 On Iteration in Bisection 13
 a: 0.00010  b:-0.00023

 -0.21343 = (-0.21349 + -0.21336)/2.0
 sum -  nocc_ = -0.00006767
 On Iteration in Bisection 14
 a: -0.00007  b:-0.00023

 -0.21340 = (-0.21343 + -0.21336)/2.0
 sum -  nocc_ = 0.00001454
 On Iteration in Bisection 15
 a: 0.00001  b:-0.00007

 -0.21341 = (-0.21343 + -0.21340)/2.0
 sum -  nocc_ = -0.00002657
 On Iteration in Bisection 16
 a: -0.00003  b:-0.00007

 -0.21340 = (-0.21341 + -0.21340)/2.0
 sum -  nocc_ = -0.00000602
 On Iteration in Bisection 17
 a: -0.00001  b:-0.00003

 -0.21340 = (-0.21340 + -0.21340)/2.0
 sum -  nocc_ = 0.00000426
 On Iteration in Bisection 18
 a: 0.00000  b:-0.00001

 -0.21340 = (-0.21340 + -0.21340)/2.0
 sum -  nocc_ = -0.00000088
 On Iteration in Bisection 19
 a: -0.00000  b:-0.00001

 -0.21340 = (-0.21340 + -0.21340)/2.0
 sum -  nocc_ = 0.00000169
 On Iteration in Bisection 20
 a: 0.00000  b:-0.00000

 -0.21340 = (-0.21340 + -0.21340)/2.0
 sum -  nocc_ = 0.00000041
 On Iteration in Bisection 21
 a: 0.00000  b:-0.00000

 -0.21340 = (-0.21340 + -0.21340)/2.0
 sum -  nocc_ = -0.00000024
 On Iteration in Bisection 22
 a: -0.00000  b:-0.00000

 -0.21340 = (-0.21340 + -0.21340)/2.0
 sum -  nocc_ = 0.00000009
 On Iteration in Bisection 23
 a: 0.00000  b:-0.00000

 -0.21340 = (-0.21340 + -0.21340)/2.0
 sum -  nocc_ = -0.00000007
 On Iteration in Bisection 24
 a: -0.00000  b:-0.00000

 -0.21340 = (-0.21340 + -0.21340)/2.0
 sum -  nocc_ = 0.00000001
 ef = -0.21340 sum = 1.00000 

 Iter: 24  T:    20000.000  val:-0.213401  sumni 0.00000
 ne = 1.0000

 iter:25  failiter:25  energy:     -1.102956094638  total:     -0.850966947691  error:     -0.000000000003
 In Bisection function HOMO = -0.357  LUMO =  1.650

 0.64633 = (-0.35703 + 1.64969)/2.0
 sum -  nocc_ = 1.92025858
 On Iteration in Bisection 0
 a: 1.92026  b:-0.48940

 0.14465 = (-0.35703 + 0.64633)/2.0
 sum -  nocc_ = 0.96750447
 On Iteration in Bisection 1
 a: 0.96750  b:-0.48940

 -0.10619 = (-0.35703 + 0.14465)/2.0
 sum -  nocc_ = 0.34135606
 On Iteration in Bisection 2
 a: 0.34136  b:-0.48940

 -0.23161 = (-0.35703 + -0.10619)/2.0
 sum -  nocc_ = -0.04922554
 On Iteration in Bisection 3
 a: -0.04923  b:-0.48940

 -0.16890 = (-0.23161 + -0.10619)/2.0
 sum -  nocc_ = 0.12410597
 On Iteration in Bisection 4
 a: 0.12411  b:-0.04923

 -0.20026 = (-0.23161 + -0.16890)/2.0
 sum -  nocc_ = 0.03540405
 On Iteration in Bisection 5
 a: 0.03540  b:-0.04923

 -0.21594 = (-0.23161 + -0.20026)/2.0
 sum -  nocc_ = -0.00680935
 On Iteration in Bisection 6
 a: -0.00681  b:-0.04923

 -0.20810 = (-0.21594 + -0.20026)/2.0
 sum -  nocc_ = 0.01424410
 On Iteration in Bisection 7
 a: 0.01424  b:-0.00681

 -0.21202 = (-0.21594 + -0.20810)/2.0
 sum -  nocc_ = 0.00371389
 On Iteration in Bisection 8
 a: 0.00371  b:-0.00681

 -0.21398 = (-0.21594 + -0.21202)/2.0
 sum -  nocc_ = -0.00154736
 On Iteration in Bisection 9
 a: -0.00155  b:-0.00681

 -0.21300 = (-0.21398 + -0.21202)/2.0
 sum -  nocc_ = 0.00108320
 On Iteration in Bisection 10
 a: 0.00108  b:-0.00155

 -0.21349 = (-0.21398 + -0.21300)/2.0
 sum -  nocc_ = -0.00023208
 On Iteration in Bisection 11
 a: -0.00023  b:-0.00155

 -0.21324 = (-0.21349 + -0.21300)/2.0
 sum -  nocc_ = 0.00042556
 On Iteration in Bisection 12
 a: 0.00043  b:-0.00023

 -0.21336 = (-0.21349 + -0.21324)/2.0
 sum -  nocc_ = 0.00009674
 On Iteration in Bisection 13
 a: 0.00010  b:-0.00023

 -0.21343 = (-0.21349 + -0.21336)/2.0
 sum -  nocc_ = -0.00006767
 On Iteration in Bisection 14
 a: -0.00007  b:-0.00023

 -0.21340 = (-0.21343 + -0.21336)/2.0
 sum -  nocc_ = 0.00001454
 On Iteration in Bisection 15
 a: 0.00001  b:-0.00007

 -0.21341 = (-0.21343 + -0.21340)/2.0
 sum -  nocc_ = -0.00002657
 On Iteration in Bisection 16
 a: -0.00003  b:-0.00007

 -0.21340 = (-0.21341 + -0.21340)/2.0
 sum -  nocc_ = -0.00000602
 On Iteration in Bisection 17
 a: -0.00001  b:-0.00003

 -0.21340 = (-0.21340 + -0.21340)/2.0
 sum -  nocc_ = 0.00000426
 On Iteration in Bisection 18
 a: 0.00000  b:-0.00001

 -0.21340 = (-0.21340 + -0.21340)/2.0
 sum -  nocc_ = -0.00000088
 On Iteration in Bisection 19
 a: -0.00000  b:-0.00001

 -0.21340 = (-0.21340 + -0.21340)/2.0
 sum -  nocc_ = 0.00000169
 On Iteration in Bisection 20
 a: 0.00000  b:-0.00000

 -0.21340 = (-0.21340 + -0.21340)/2.0
 sum -  nocc_ = 0.00000041
 On Iteration in Bisection 21
 a: 0.00000  b:-0.00000

 -0.21340 = (-0.21340 + -0.21340)/2.0
 sum -  nocc_ = -0.00000024
 On Iteration in Bisection 22
 a: -0.00000  b:-0.00000

 -0.21340 = (-0.21340 + -0.21340)/2.0
 sum -  nocc_ = 0.00000009
 On Iteration in Bisection 23
 a: 0.00000  b:-0.00000

 -0.21340 = (-0.21340 + -0.21340)/2.0
 sum -  nocc_ = -0.00000007
 On Iteration in Bisection 24
 a: -0.00000  b:-0.00000

 -0.21340 = (-0.21340 + -0.21340)/2.0
 sum -  nocc_ = 0.00000001
 ef = -0.21340 sum = 1.00000 

 Iter: 25  T:    20000.000  val:-0.213401  sumni 0.00000
 ne = 1.0000

 iter:26  failiter:26  energy:     -1.102956094639  total:     -0.850966947692  error:     -0.000000000001
 In Bisection function HOMO = -0.357  LUMO =  1.650

 0.64633 = (-0.35703 + 1.64969)/2.0
 sum -  nocc_ = 1.92025858
 On Iteration in Bisection 0
 a: 1.92026  b:-0.48940

 0.14465 = (-0.35703 + 0.64633)/2.0
 sum -  nocc_ = 0.96750447
 On Iteration in Bisection 1
 a: 0.96750  b:-0.48940

 -0.10619 = (-0.35703 + 0.14465)/2.0
 sum -  nocc_ = 0.34135606
 On Iteration in Bisection 2
 a: 0.34136  b:-0.48940

 -0.23161 = (-0.35703 + -0.10619)/2.0
 sum -  nocc_ = -0.04922554
 On Iteration in Bisection 3
 a: -0.04923  b:-0.48940

 -0.16890 = (-0.23161 + -0.10619)/2.0
 sum -  nocc_ = 0.12410597
 On Iteration in Bisection 4
 a: 0.12411  b:-0.04923

 -0.20026 = (-0.23161 + -0.16890)/2.0
 sum -  nocc_ = 0.03540405
 On Iteration in Bisection 5
 a: 0.03540  b:-0.04923

 -0.21594 = (-0.23161 + -0.20026)/2.0
 sum -  nocc_ = -0.00680935
 On Iteration in Bisection 6
 a: -0.00681  b:-0.04923

 -0.20810 = (-0.21594 + -0.20026)/2.0
 sum -  nocc_ = 0.01424410
 On Iteration in Bisection 7
 a: 0.01424  b:-0.00681

 -0.21202 = (-0.21594 + -0.20810)/2.0
 sum -  nocc_ = 0.00371389
 On Iteration in Bisection 8
 a: 0.00371  b:-0.00681

 -0.21398 = (-0.21594 + -0.21202)/2.0
 sum -  nocc_ = -0.00154736
 On Iteration in Bisection 9
 a: -0.00155  b:-0.00681

 -0.21300 = (-0.21398 + -0.21202)/2.0
 sum -  nocc_ = 0.00108320
 On Iteration in Bisection 10
 a: 0.00108  b:-0.00155

 -0.21349 = (-0.21398 + -0.21300)/2.0
 sum -  nocc_ = -0.00023208
 On Iteration in Bisection 11
 a: -0.00023  b:-0.00155

 -0.21324 = (-0.21349 + -0.21300)/2.0
 sum -  nocc_ = 0.00042556
 On Iteration in Bisection 12
 a: 0.00043  b:-0.00023

 -0.21336 = (-0.21349 + -0.21324)/2.0
 sum -  nocc_ = 0.00009674
 On Iteration in Bisection 13
 a: 0.00010  b:-0.00023

 -0.21343 = (-0.21349 + -0.21336)/2.0
 sum -  nocc_ = -0.00006767
 On Iteration in Bisection 14
 a: -0.00007  b:-0.00023

 -0.21340 = (-0.21343 + -0.21336)/2.0
 sum -  nocc_ = 0.00001454
 On Iteration in Bisection 15
 a: 0.00001  b:-0.00007

 -0.21341 = (-0.21343 + -0.21340)/2.0
 sum -  nocc_ = -0.00002657
 On Iteration in Bisection 16
 a: -0.00003  b:-0.00007

 -0.21340 = (-0.21341 + -0.21340)/2.0
 sum -  nocc_ = -0.00000602
 On Iteration in Bisection 17
 a: -0.00001  b:-0.00003

 -0.21340 = (-0.21340 + -0.21340)/2.0
 sum -  nocc_ = 0.00000426
 On Iteration in Bisection 18
 a: 0.00000  b:-0.00001

 -0.21340 = (-0.21340 + -0.21340)/2.0
 sum -  nocc_ = -0.00000088
 On Iteration in Bisection 19
 a: -0.00000  b:-0.00001

 -0.21340 = (-0.21340 + -0.21340)/2.0
 sum -  nocc_ = 0.00000169
 On Iteration in Bisection 20
 a: 0.00000  b:-0.00000

 -0.21340 = (-0.21340 + -0.21340)/2.0
 sum -  nocc_ = 0.00000041
 On Iteration in Bisection 21
 a: 0.00000  b:-0.00000

 -0.21340 = (-0.21340 + -0.21340)/2.0
 sum -  nocc_ = -0.00000024
 On Iteration in Bisection 22
 a: -0.00000  b:-0.00000

 -0.21340 = (-0.21340 + -0.21340)/2.0
 sum -  nocc_ = 0.00000009
 On Iteration in Bisection 23
 a: 0.00000  b:-0.00000

 -0.21340 = (-0.21340 + -0.21340)/2.0
 sum -  nocc_ = -0.00000007
 On Iteration in Bisection 24
 a: -0.00000  b:-0.00000

 -0.21340 = (-0.21340 + -0.21340)/2.0
 sum -  nocc_ = 0.00000001
 ef = -0.21340 sum = 1.00000 

 Iter: 26  T:    20000.000  val:-0.213401  sumni 0.00000
 ne = 1.0000

 iter:27  failiter:27  energy:     -1.102956094640  total:     -0.850966947692  error:     -0.000000000000
 FTHFEnergy =    -0.850967
 FD_dis[0] = 0.90618597 with -0.357034 eig value
 FD_dis[1] = 0.09381186 with -0.069765 eig value
 FD_dis[2] = 0.00000115 with 0.652893 eig value
 FD_dis[3] = 0.00000102 with 0.660023 eig value
 FD_dis[4] = 0.00000000 with 1.374101 eig value
 FD_dis[5] = 0.00000000 with 1.456630 eig value
 FD_dis[6] = 0.00000000 with 1.456630 eig value
 FD_dis[7] = 0.00000000 with 1.488563 eig value
 FD_dis[8] = 0.00000000 with 1.488563 eig value
 FD_dis[9] = 0.00000000 with 1.649688 eig value
*** PSI4 exiting successfully. Buy a developer a beer!
