    -----------------------------------------------------------------------
          PSI4: An Open-Source Ab Initio Electronic Structure Package
                              PSI 4.0 Driver

               Git: Rev {master} 556e8139d3cfa1f96ccffe2cdf22cc56a185d2b2

    J. M. Turney, A. C. Simmonett, R. M. Parrish, E. G. Hohenstein,
    F. A. Evangelista, J. T. Fermann, B. J. Mintz, L. A. Burns, J. J. Wilke,
    M. L. Abrams, N. J. Russ, M. L. Leininger, C. L. Janssen, E. T. Seidl,
    W. D. Allen, H. F. Schaefer, R. A. King, E. F. Valeev, C. D. Sherrill,
    and T. D. Crawford, WIREs Comput. Mol. Sci. 2, 556-565 (2012)
    (doi: 10.1002/wcms.93)

                         Additional Contributions by
    A. E. DePrince, M. Saitow, U. Bozkaya, A. Yu. Sokolov
    -----------------------------------------------------------------------

    Process ID:  11931
    PSI4DATADIR: /Users/kevinhannon/Programs/psi4cmake/psi4/lib
    Memory level set to 256.000 MB

  ==> Input File <==

--------------------------------------------------------------------------

# PYTHONPATH must include directory above plugin directory.
#     Define either externally or here, then import plugin.
sys.path.insert(0, '/Users/kevinhannon/Programs/Quantum_Programs/Quantum-Programs/GS/')
import scf

molecule {
0 1
H
H 1 0.60000
symmetry c1
units angstrom
}


set {
  basis cc-pvdz
  reference rhf
  scf_type  pk
}

set scf {
  DO_FTHF true
  MAX_ITER 130
  MAX_TEMP 100
  TEMP_INCREMENT 0
  bisect  true
  bisect_iter  40
}
energy('rhf')

energy('scf')


--------------------------------------------------------------------------

*** tstart() called on Kevins-MacBook-Pro.local
*** at Fri Apr 10 18:02:02 2015

/Users/kevinhannon/Programs/Quantum_Programs/Quantum-Programs/GS/scf/scf.so loaded.

*** tstart() called on Kevins-MacBook-Pro.local
*** at Fri Apr 10 18:02:02 2015


         ---------------------------------------------------------
                                   SCF
            by Justin Turney, Rob Parrish, and Andy Simmonett
                              RHF Reference
                        1 Threads,    256 MiB Core
         ---------------------------------------------------------

  ==> Geometry <==

    Molecular point group: c1
    Full point group: D_inf_h

    Geometry (in Angstrom), charge = 0, multiplicity = 1:

       Center              X                  Y                   Z       
    ------------   -----------------  -----------------  -----------------
           H          0.000000000000     0.000000000000    -0.300000000000
           H          0.000000000000     0.000000000000     0.300000000000

  Running in c1 symmetry.

  Rotational constants: A = ************  B =     92.92634  C =     92.92634 [cm^-1]
  Rotational constants: A = ************  B = 2785861.68186  C = 2785861.68186 [MHz]
  Nuclear repulsion =    0.881962014316667

  Charge       = 0
  Multiplicity = 1
  Electrons    = 2
  Nalpha       = 1
  Nbeta        = 1

  ==> Algorithm <==

  SCF Algorithm Type is PK.
  DIIS enabled.
  MOM disabled.
  Fractional occupation disabled.
  Guess Type is CORE.
  Energy threshold   = 1.00e-06
  Density threshold  = 1.00e-06
  Integral threshold = 0.00e+00

  ==> Primary Basis <==

  Basis Set: CC-PVDZ
    Number of shells: 6
    Number of basis function: 10
    Number of Cartesian functions: 10
    Spherical Harmonics?: true
    Max angular momentum: 1

  ==> Pre-Iterations <==

   -------------------------------------------------------
    Irrep   Nso     Nmo     Nalpha   Nbeta   Ndocc  Nsocc
   -------------------------------------------------------
     A         10      10       0       0       0       0
   -------------------------------------------------------
    Total      10      10       1       1       1       0
   -------------------------------------------------------

  Starting with a DF guess...

 OEINTS: Overlap, kinetic, potential, dipole, and quadrupole integrals
         stored in file 35.

  ==> Integral Setup <==

  ==> DFJK: Density-Fitted J/K Matrices <==

    J tasked:                  Yes
    K tasked:                  Yes
    wK tasked:                  No
    OpenMP threads:              1
    Integrals threads:           1
    Memory (MB):               183
    Algorithm:                Core
    Integral Cache:           NONE
    Schwarz Cutoff:          1E-12
    Fitting Condition:       1E-12

   => Auxiliary Basis Set <=

  Basis Set: 
    Number of shells: 18
    Number of basis function: 46
    Number of Cartesian functions: 50
    Spherical Harmonics?: true
    Max angular momentum: 2

  Minimum eigenvalue in the overlap matrix is 2.0282245089E-02.
  Using Symmetric Orthogonalization.
  SCF Guess: Core (One-Electron) Hamiltonian.

  ==> Iterations <==

                           Total Energy        Delta E     RMS |[F,P]|

   @DF-RHF iter   1:    -1.05402082062626   -1.05402e+00   2.27724e-02 
   @DF-RHF iter   2:    -1.10484001789040   -5.08192e-02   4.34980e-03 DIIS
   @DF-RHF iter   3:    -1.10689096182727   -2.05094e-03   2.43146e-04 DIIS
   @DF-RHF iter   4:    -1.10689414457805   -3.18275e-06   1.94685e-05 DIIS
   @DF-RHF iter   5:    -1.10689418661776   -4.20397e-08   5.27016e-08 DIIS

  DF guess converged.

  ==> Integral Setup <==

 MINTS: Wrapper to libmints.
   by Justin Turney

   Calculation information:
      Number of atoms:                   2
      Number of AO shells:               6
      Number of SO shells:               6
      Number of primitives:             10
      Number of atomic orbitals:        10
      Number of basis functions:        10

      Number of irreps:                  1
      Integral cutoff                 0.00e+00
      Number of functions per irrep: [  10 ]

 OEINTS: Overlap, kinetic, potential, dipole, and quadrupole integrals
         stored in file 35.

      Computing two-electron integrals...done
      Computed 512 non-zero two-electron integrals.
        Stored in file 33.

	Batch   1 pq = [       0,      55] index = [             0,1540]
  ==> DiskJK: Disk-Based J/K Matrices <==

    J tasked:                  Yes
    K tasked:                  Yes
    wK tasked:                  No
    Memory (MB):               183
    Schwarz Cutoff:          1E-12

   @RHF iter   6:    -1.10689247605545    1.71056e-06   3.54949e-07 DIIS
   @RHF iter   7:    -1.10689247606714   -1.16898e-11   5.90193e-08 DIIS

  ==> Post-Iterations <==

    Orbital Energies (a.u.)
    -----------------------

    Doubly Occupied:                                                      

       1A     -0.638794  

    Virtual:                                                              

       2A      0.222604     3A      0.445469     4A      1.057535  
       5A      1.313546     6A      1.313546     7A      2.078266  
       8A      2.138016     9A      2.138016    10A      4.802344  

    Final Occupation by Irrep:
              A 
    DOCC [     1 ]

  Energy converged.

  @RHF Final Energy:    -1.10689247606714

   => Energetics <=

    Nuclear Repulsion Energy =              0.8819620143166668
    One-Electron Energy =                  -2.7001211369648517
    Two-Electron Energy =                   0.7112666465810418
    DFT Exchange-Correlation Energy =       0.0000000000000000
    Empirical Dispersion Energy =           0.0000000000000000
    PCM Polarization Energy =               0.0000000000000000
    EFP Energy =                            0.0000000000000000
    Total Energy =                         -1.1068924760671432

    Alert: EFP and PCM quantities not currently incorporated into SCF psivars.

Properties will be evaluated at   0.000000,   0.000000,   0.000000 Bohr
  ==> Properties <==


Properties computed using the SCF density matrix

  Nuclear Dipole Moment: (a.u.)
     X:     0.0000      Y:     0.0000      Z:     0.0000

  Electronic Dipole Moment: (a.u.)
     X:    -0.0000      Y:    -0.0000      Z:    -0.0000

  Dipole Moment: (a.u.)
     X:    -0.0000      Y:    -0.0000      Z:    -0.0000     Total:     0.0000

  Dipole Moment: (Debye)
     X:    -0.0000      Y:    -0.0000      Z:    -0.0000     Total:     0.0000


  Saving occupied orbitals to File 180.

*** tstop() called on Kevins-MacBook-Pro.local at Fri Apr 10 18:02:02 2015
Module time:
	user time   =       0.21 seconds =       0.00 minutes
	system time =       0.01 seconds =       0.00 minutes
	total time  =          0 seconds =       0.00 minutes
Total time:
	user time   =       0.22 seconds =       0.00 minutes
	system time =       0.01 seconds =       0.00 minutes
	total time  =          0 seconds =       0.00 minutes

*** tstart() called on Kevins-MacBook-Pro.local
*** at Fri Apr 10 18:02:02 2015


         ---------------------------------------------------------
                                   SCF
            by Justin Turney, Rob Parrish, and Andy Simmonett
                              RHF Reference
                        1 Threads,    256 MiB Core
         ---------------------------------------------------------

  ==> Geometry <==

    Molecular point group: c1
    Full point group: D_inf_h

    Geometry (in Angstrom), charge = 0, multiplicity = 1:

       Center              X                  Y                   Z       
    ------------   -----------------  -----------------  -----------------
           H          0.000000000000     0.000000000000    -0.300000000000
           H          0.000000000000     0.000000000000     0.300000000000

  Running in c1 symmetry.

  Rotational constants: A = ************  B =     92.92634  C =     92.92634 [cm^-1]
  Rotational constants: A = ************  B = 2785861.68186  C = 2785861.68186 [MHz]
  Nuclear repulsion =    0.881962014316667

  Charge       = 0
  Multiplicity = 1
  Electrons    = 2
  Nalpha       = 1
  Nbeta        = 1

  ==> Algorithm <==

  SCF Algorithm Type is PK.
  DIIS enabled.
  MOM disabled.
  Fractional occupation disabled.
  Guess Type is CORE.
  Energy threshold   = 1.00e-08
  Density threshold  = 1.00e-08
  Integral threshold = 0.00e+00

  ==> Primary Basis <==

  Basis Set: CC-PVDZ
    Number of shells: 6
    Number of basis function: 10
    Number of Cartesian functions: 10
    Spherical Harmonics?: true
    Max angular momentum: 1

  ==> Pre-Iterations <==

   -------------------------------------------------------
    Irrep   Nso     Nmo     Nalpha   Nbeta   Ndocc  Nsocc
   -------------------------------------------------------
     A         10      10       0       0       0       0
   -------------------------------------------------------
    Total      10      10       1       1       1       0
   -------------------------------------------------------

  Starting with a DF guess...

 OEINTS: Overlap, kinetic, potential, dipole, and quadrupole integrals
         stored in file 35.

  ==> Integral Setup <==

  ==> DFJK: Density-Fitted J/K Matrices <==

    J tasked:                  Yes
    K tasked:                  Yes
    wK tasked:                  No
    OpenMP threads:              1
    Integrals threads:           1
    Memory (MB):               183
    Algorithm:                Core
    Integral Cache:           NONE
    Schwarz Cutoff:          1E-12
    Fitting Condition:       1E-12

   => Auxiliary Basis Set <=

  Basis Set: 
    Number of shells: 18
    Number of basis function: 46
    Number of Cartesian functions: 50
    Spherical Harmonics?: true
    Max angular momentum: 2

  Minimum eigenvalue in the overlap matrix is 2.0282245089E-02.
  Using Symmetric Orthogonalization.
  SCF Guess: Core (One-Electron) Hamiltonian.

  ==> Iterations <==

                           Total Energy        Delta E     RMS |[F,P]|

   @DF-RHF iter   1:    -1.05402082062626   -1.05402e+00   2.27724e-02 
   @DF-RHF iter   2:    -1.10484001789040   -5.08192e-02   4.34980e-03 DIIS
   @DF-RHF iter   3:    -1.10689096182727   -2.05094e-03   2.43146e-04 DIIS
   @DF-RHF iter   4:    -1.10689414457805   -3.18275e-06   1.94685e-05 DIIS
   @DF-RHF iter   5:    -1.10689418661776   -4.20397e-08   5.27016e-08 DIIS
   @DF-RHF iter   6:    -1.10689418661807   -3.12639e-13   6.27127e-11 DIIS

  DF guess converged.

  ==> Integral Setup <==

 MINTS: Wrapper to libmints.
   by Justin Turney

   Calculation information:
      Number of atoms:                   2
      Number of AO shells:               6
      Number of SO shells:               6
      Number of primitives:             10
      Number of atomic orbitals:        10
      Number of basis functions:        10

      Number of irreps:                  1
      Integral cutoff                 0.00e+00
      Number of functions per irrep: [  10 ]

 OEINTS: Overlap, kinetic, potential, dipole, and quadrupole integrals
         stored in file 35.

      Computing two-electron integrals...done
      Computed 512 non-zero two-electron integrals.
        Stored in file 33.

	Batch   1 pq = [       0,      55] index = [             0,1540]
  ==> DiskJK: Disk-Based J/K Matrices <==

    J tasked:                  Yes
    K tasked:                  Yes
    wK tasked:                  No
    Memory (MB):               183
    Schwarz Cutoff:          1E-12

   @RHF iter   7:    -1.10689247605546    1.71056e-06   3.54890e-07 DIIS
   @RHF iter   8:    -1.10689247606714   -1.16853e-11   5.90082e-08 DIIS
   @RHF iter   9:    -1.10689247606752   -3.76144e-13   3.25342e-09 DIIS

  ==> Post-Iterations <==

    Orbital Energies (a.u.)
    -----------------------

    Doubly Occupied:                                                      

       1A     -0.638794  

    Virtual:                                                              

       2A      0.222604     3A      0.445469     4A      1.057535  
       5A      1.313546     6A      1.313546     7A      2.078266  
       8A      2.138016     9A      2.138016    10A      4.802343  

    Final Occupation by Irrep:
              A 
    DOCC [     1 ]

  Energy converged.

  @RHF Final Energy:    -1.10689247606752

   => Energetics <=

    Nuclear Repulsion Energy =              0.8819620143166668
    One-Electron Energy =                  -2.7001208341429730
    Two-Electron Energy =                   0.7112663437587863
    DFT Exchange-Correlation Energy =       0.0000000000000000
    Empirical Dispersion Energy =           0.0000000000000000
    PCM Polarization Energy =               0.0000000000000000
    EFP Energy =                            0.0000000000000000
    Total Energy =                         -1.1068924760675201

    Alert: EFP and PCM quantities not currently incorporated into SCF psivars.

Properties will be evaluated at   0.000000,   0.000000,   0.000000 Bohr
  ==> Properties <==


Properties computed using the SCF density matrix

  Nuclear Dipole Moment: (a.u.)
     X:     0.0000      Y:     0.0000      Z:     0.0000

  Electronic Dipole Moment: (a.u.)
     X:    -0.0000      Y:    -0.0000      Z:     0.0000

  Dipole Moment: (a.u.)
     X:    -0.0000      Y:    -0.0000      Z:     0.0000     Total:     0.0000

  Dipole Moment: (Debye)
     X:    -0.0000      Y:    -0.0000      Z:     0.0000     Total:     0.0000


  Saving occupied orbitals to File 180.

*** tstop() called on Kevins-MacBook-Pro.local at Fri Apr 10 18:02:03 2015
Module time:
	user time   =       0.20 seconds =       0.00 minutes
	system time =       0.01 seconds =       0.00 minutes
	total time  =          1 seconds =       0.02 minutes
Total time:
	user time   =       0.42 seconds =       0.01 minutes
	system time =       0.02 seconds =       0.00 minutes
	total time  =          1 seconds =       0.02 minutes
Reading options from the SCF block
Calling plugin scf.so.
    Molecular point group: c1
    Full point group: D_inf_h

    Geometry (in Angstrom), charge = 0, multiplicity = 1:

       Center              X                  Y                   Z       
    ------------   -----------------  -----------------  -----------------
           H          0.000000000000     0.000000000000    -0.300000000000
           H          0.000000000000     0.000000000000     0.300000000000


    Nuclear repulsion energy:       0.88196201

  ## Overlap (Symmetry 0) ##
  Irrep: 1 Size: 10 x 10

                 1                   2                   3                   4                   5

    1     1.00000000000000     0.68486025149275     0.00000000000000     0.00000000000000     0.00000000000000
    2     0.68486025149275     1.00000000000000     0.00000000000000     0.00000000000000     0.00000000000000
    3     0.00000000000000     0.00000000000000     1.00000000000000     0.00000000000000     0.00000000000000
    4     0.00000000000000     0.00000000000000     0.00000000000000     1.00000000000000     0.00000000000000
    5     0.00000000000000     0.00000000000000     0.00000000000000     0.00000000000000     1.00000000000000
    6     0.68476881141071     0.60385294599374     0.54818348561785     0.00000000000000     0.00000000000000
    7     0.60385294599374     0.92457548285615     0.14275009429716     0.00000000000000     0.00000000000000
    8    -0.54818348561785    -0.14275009429716     0.04097330284350     0.00000000000000     0.00000000000000
    9     0.00000000000000     0.00000000000000     0.00000000000000     0.62668607144885     0.00000000000000
   10     0.00000000000000     0.00000000000000     0.00000000000000     0.00000000000000     0.62668607144885

                 6                   7                   8                   9                  10

    1     0.68476881141071     0.60385294599374    -0.54818348561785     0.00000000000000     0.00000000000000
    2     0.60385294599374     0.92457548285615    -0.14275009429716     0.00000000000000     0.00000000000000
    3     0.54818348561785     0.14275009429716     0.04097330284350     0.00000000000000     0.00000000000000
    4     0.00000000000000     0.00000000000000     0.00000000000000     0.62668607144885     0.00000000000000
    5     0.00000000000000     0.00000000000000     0.00000000000000     0.00000000000000     0.62668607144885
    6     1.00000000000000     0.68486025149275    -0.00000000000000     0.00000000000000     0.00000000000000
    7     0.68486025149275     1.00000000000000     0.00000000000000     0.00000000000000     0.00000000000000
    8    -0.00000000000000     0.00000000000000     1.00000000000000     0.00000000000000     0.00000000000000
    9     0.00000000000000     0.00000000000000     0.00000000000000     1.00000000000000     0.00000000000000
   10     0.00000000000000     0.00000000000000     0.00000000000000     0.00000000000000     1.00000000000000



  ## Kinetic (Symmetry 0) ##
  Irrep: 1 Size: 10 x 10

                 1                   2                   3                   4                   5

    1     0.96945722711242     0.20123413106538     0.00000000000000     0.00000000000000     0.00000000000000
    2     0.20123413106538     0.18300000000000     0.00000000000000     0.00000000000000     0.00000000000000
    3     0.00000000000000     0.00000000000000     1.81750000000000     0.00000000000000     0.00000000000000
    4     0.00000000000000     0.00000000000000     0.00000000000000     1.81750000000000     0.00000000000000
    5     0.00000000000000     0.00000000000000     0.00000000000000     0.00000000000000     1.81750000000000
    6     0.40193881588927     0.16240634293717     0.76125920134824     0.00000000000000     0.00000000000000
    7     0.16240634293717     0.16035161191585     0.07055893366246     0.00000000000000     0.00000000000000
    8    -0.76125920134824    -0.07055893366246    -0.36526423059938     0.00000000000000     0.00000000000000
    9     0.00000000000000     0.00000000000000     0.00000000000000     0.92609534347024     0.00000000000000
   10     0.00000000000000     0.00000000000000     0.00000000000000     0.00000000000000     0.92609534347024

                 6                   7                   8                   9                  10

    1     0.40193881588927     0.16240634293717    -0.76125920134824     0.00000000000000     0.00000000000000
    2     0.16240634293717     0.16035161191585    -0.07055893366246     0.00000000000000     0.00000000000000
    3     0.76125920134824     0.07055893366246    -0.36526423059938     0.00000000000000     0.00000000000000
    4     0.00000000000000     0.00000000000000     0.00000000000000     0.92609534347024     0.00000000000000
    5     0.00000000000000     0.00000000000000     0.00000000000000     0.00000000000000     0.92609534347024
    6     0.96945722711242     0.20123413106538    -0.00000000000000     0.00000000000000     0.00000000000000
    7     0.20123413106538     0.18300000000000     0.00000000000000     0.00000000000000     0.00000000000000
    8    -0.00000000000000     0.00000000000000     1.81750000000000     0.00000000000000     0.00000000000000
    9     0.00000000000000     0.00000000000000     0.00000000000000     1.81750000000000     0.00000000000000
   10     0.00000000000000     0.00000000000000     0.00000000000000     0.00000000000000     1.81750000000000



  ## Potential (Symmetry 0) ##
  Irrep: 1 Size: 10 x 10

                 1                   2                   3                   4                   5

    1    -2.18057106698719    -1.13069550160364    -0.31411493949955     0.00000000000000     0.00000000000000
    2    -1.13069550160364    -1.06157504397971    -0.21331288649568     0.00000000000000     0.00000000000000
    3    -0.31411493949955    -0.21331288649568    -1.86675139464648     0.00000000000000     0.00000000000000
    4     0.00000000000000     0.00000000000000     0.00000000000000    -1.57491200882979     0.00000000000000
    5     0.00000000000000     0.00000000000000     0.00000000000000     0.00000000000000    -1.57491200882979
    6    -1.50044630400815    -1.02316686969692    -1.34502614051462     0.00000000000000     0.00000000000000
    7    -1.02316686969692    -1.00435652706160    -0.40178761271240     0.00000000000000     0.00000000000000
    8     1.34502614051462     0.40178761271240     0.10694785551753     0.00000000000000     0.00000000000000
    9     0.00000000000000     0.00000000000000     0.00000000000000    -1.04043598836449     0.00000000000000
   10     0.00000000000000     0.00000000000000     0.00000000000000     0.00000000000000    -1.04043598836449

                 6                   7                   8                   9                  10

    1    -1.50044630400815    -1.02316686969692     1.34502614051462     0.00000000000000     0.00000000000000
    2    -1.02316686969692    -1.00435652706160     0.40178761271240     0.00000000000000     0.00000000000000
    3    -1.34502614051462    -0.40178761271240     0.10694785551753     0.00000000000000     0.00000000000000
    4     0.00000000000000     0.00000000000000     0.00000000000000    -1.04043598836449     0.00000000000000
    5     0.00000000000000     0.00000000000000     0.00000000000000     0.00000000000000    -1.04043598836449
    6    -2.18057106698719    -1.13069550160364     0.31411493949955     0.00000000000000     0.00000000000000
    7    -1.13069550160364    -1.06157504397971     0.21331288649568     0.00000000000000     0.00000000000000
    8     0.31411493949955     0.21331288649568    -1.86675139464648     0.00000000000000     0.00000000000000
    9     0.00000000000000     0.00000000000000     0.00000000000000    -1.57491200882979     0.00000000000000
   10     0.00000000000000     0.00000000000000     0.00000000000000     0.00000000000000    -1.57491200882979



  ## One Electron Ints (Symmetry 0) ##
  Irrep: 1 Size: 10 x 10

                 1                   2                   3                   4                   5

    1    -1.21111383987477    -0.92946137053825    -0.31411493949955     0.00000000000000     0.00000000000000
    2    -0.92946137053825    -0.87857504397971    -0.21331288649568     0.00000000000000     0.00000000000000
    3    -0.31411493949955    -0.21331288649568    -0.04925139464648     0.00000000000000     0.00000000000000
    4     0.00000000000000     0.00000000000000     0.00000000000000     0.24258799117021     0.00000000000000
    5     0.00000000000000     0.00000000000000     0.00000000000000     0.00000000000000     0.24258799117021
    6    -1.09850748811888    -0.86076052675975    -0.58376693916638     0.00000000000000     0.00000000000000
    7    -0.86076052675975    -0.84400491514574    -0.33122867904993     0.00000000000000     0.00000000000000
    8     0.58376693916638     0.33122867904993    -0.25831637508185     0.00000000000000     0.00000000000000
    9     0.00000000000000     0.00000000000000     0.00000000000000    -0.11434064489425     0.00000000000000
   10     0.00000000000000     0.00000000000000     0.00000000000000     0.00000000000000    -0.11434064489425

                 6                   7                   8                   9                  10

    1    -1.09850748811888    -0.86076052675975     0.58376693916638     0.00000000000000     0.00000000000000
    2    -0.86076052675975    -0.84400491514574     0.33122867904993     0.00000000000000     0.00000000000000
    3    -0.58376693916638    -0.33122867904993    -0.25831637508185     0.00000000000000     0.00000000000000
    4     0.00000000000000     0.00000000000000     0.00000000000000    -0.11434064489425     0.00000000000000
    5     0.00000000000000     0.00000000000000     0.00000000000000     0.00000000000000    -0.11434064489425
    6    -1.21111383987477    -0.92946137053825     0.31411493949955     0.00000000000000     0.00000000000000
    7    -0.92946137053825    -0.87857504397971     0.21331288649568     0.00000000000000     0.00000000000000
    8     0.31411493949955     0.21331288649568    -0.04925139464648     0.00000000000000     0.00000000000000
    9     0.00000000000000     0.00000000000000     0.00000000000000     0.24258799117021     0.00000000000000
   10     0.00000000000000     0.00000000000000     0.00000000000000     0.00000000000000     0.24258799117021




	There are 0 unique integrals

  ## Fock (Symmetry 0) ##
  Irrep: 1 Size: 10 x 10

                 1                   2                   3                   4                   5

    1     0.60709548793024    -0.30995880487153     0.55531784087355    -0.00000000000000     0.00000000000000
    2    -0.30995880487153    -0.36851935185640     0.12664300174207    -0.00000000000000     0.00000000000000
    3     0.55531784087355     0.12664300174207     0.73762825834056    -0.00000000000000     0.00000000000000
    4    -0.00000000000000    -0.00000000000000    -0.00000000000000     0.51747409179074     0.00000000000000
    5     0.00000000000000     0.00000000000000     0.00000000000000     0.00000000000000     0.51747409179074
    6    -1.59236770528266    -0.12061108775640    -1.17489986569412     0.00000000000000     0.00000000000000
    7    -0.12061108775640    -0.15604169365391    -0.08984755078744     0.00000000000000     0.00000000000000
    8     1.17489986569411     0.08984755078744     0.08600584667874    -0.00000000000000     0.00000000000000
    9     0.00000000000000     0.00000000000000     0.00000000000000    -0.43863445055515     0.00000000000000
   10     0.00000000000000     0.00000000000000     0.00000000000000     0.00000000000000    -0.43863445055515

                 6                   7                   8                   9                  10

    1    -1.59236770528266    -0.12061108775640     1.17489986569411     0.00000000000000     0.00000000000000
    2    -0.12061108775640    -0.15604169365391     0.08984755078744     0.00000000000000     0.00000000000000
    3    -1.17489986569412    -0.08984755078743     0.08600584667874     0.00000000000000     0.00000000000000
    4     0.00000000000000     0.00000000000000    -0.00000000000000    -0.43863445055515     0.00000000000000
    5     0.00000000000000     0.00000000000000     0.00000000000000     0.00000000000000    -0.43863445055515
    6     0.60709548793024    -0.30995880487153    -0.55531784087355    -0.00000000000000     0.00000000000000
    7    -0.30995880487153    -0.36851935185640    -0.12664300174207    -0.00000000000000     0.00000000000000
    8    -0.55531784087355    -0.12664300174207     0.73762825834056     0.00000000000000     0.00000000000000
    9    -0.00000000000000    -0.00000000000000     0.00000000000000     0.51747409179074     0.00000000000000
   10     0.00000000000000     0.00000000000000     0.00000000000000     0.00000000000000     0.51747409179074



  ## C (Symmetry 0) ##
  Irrep: 1 Size: 10 x 10

                 1                   2                   3                   4                   5

    1     2.51900925766156     0.53534751321092     0.60341799420381    -1.00613332087135    -2.23551487954569
    2    -1.45626101214726    -1.25278963255580     2.22150541974082    -0.00126760339334    -0.04164754548363
    3     1.03819951338253    -0.81912471042820     0.62759607381933    -0.63170569433869    -1.16404298163532
    4     0.29153088021403    -0.67231588663222    -0.44214883512406    -0.30144627770160     0.00000000000000
    5    -0.24955748938478     0.00297037186528    -0.16906239890377    -0.66358736580248     0.54050560208506
    6    -1.85808157301044     0.26169839953480    -0.35591040390550     1.52043189290442     2.64320590356982
    7     1.12521382541251     0.51477760055017    -2.48074366839690    -0.21012636401182    -0.12731763653247
    8     0.94708995826923     0.06973423617338     0.50390523473089    -0.49041751138766    -1.80105197424549
    9    -0.10268152402502     0.23679968247257     0.15573141412360     0.85585892408621     0.00000000000000
   10     0.70853754105380    -0.00843340739895     0.47999784217753     0.23372536725552    -0.19037413438128

                 6                   7                   8                   9                  10

    1     2.22245088362557     0.12361918510344    -1.03394173875290    -1.00613332087135    -0.23497703568165
    2     0.18947034439807     1.03206987325680     0.16765802386425    -0.00126760339335     0.03853503159505
    3     1.15465586998565    -0.65744193496263    -0.45853247248182    -0.63170569433869    -0.38706737152867
    4    -0.29153088021403     0.67231588663223    -0.44214883512406     0.30144627770160     0.00000000000000
    5     0.24955748938478    -0.00297037186528    -0.16906239890377    -0.66358736580248     0.54050560208506
    6    -1.85987058412773     0.25921461684384     0.35331323642453     1.52043189290442     1.09011116401437
    7     0.09338691838505    -0.91776453793339     0.98280591774666    -0.21012636401181    -0.38863335395629
    8     0.98282363277488     0.11934526506162    -0.45202946017325    -0.49041751138766     0.59686514151058
    9     0.10268152402503    -0.23679968247258     0.15573141412360    -0.85585892408621    -0.00000000000000
   10    -0.70853754105380     0.00843340739895     0.47999784217753     0.23372536725552    -0.19037413438128




 In Bisection function HOMO = -1.380  LUMO =  3.374

 0.99694 = (-1.37997 + 3.37385)/2.0
 sum -  nocc_ = 8.00000000
 On Iteration in Bisection 0
 a: 8.00000  b:-0.50000

 -0.19151 = (-1.37997 + 0.99694)/2.0
 sum -  nocc_ = 2.00000000
 On Iteration in Bisection 1
 a: 2.00000  b:-0.50000

 -0.78574 = (-1.37997 + -0.19151)/2.0
 sum -  nocc_ = 0.00000000
 ef = -0.78574 sum = 1.00000 

 Iter: 0  T:      100.000  val:-0.785740  sumni 0.00000
 ne = 1.0000

Nuc Replusion =       0.881962014317
 1st iteration =       1.357187343137
 In Bisection function HOMO = -0.201  LUMO =  4.609

 2.20435 = (-0.20051 + 4.60921)/2.0
 sum -  nocc_ = 8.00000000
 On Iteration in Bisection 0
 a: 8.00000  b:-0.50000

 1.00192 = (-0.20051 + 2.20435)/2.0
 sum -  nocc_ = 2.00000000
 On Iteration in Bisection 1
 a: 2.00000  b:-0.50000

 0.40070 = (-0.20051 + 1.00192)/2.0
 sum -  nocc_ = 1.00000000
 On Iteration in Bisection 2
 a: 1.00000  b:-0.50000

 0.10010 = (-0.20051 + 0.40070)/2.0
 sum -  nocc_ = 0.00000000
 ef = 0.10010 sum = 1.00000 

 Iter: 0  T:      100.000  val:0.100097  sumni 0.00000
 ne = 1.0000

 iter:1  failiter:1  energy:     -1.512024039574  total:     -0.630062025257  error:     -0.405131563506
 In Bisection function HOMO = -0.653  LUMO =  4.760

 2.05376 = (-0.65257 + 4.76010)/2.0
 sum -  nocc_ = 5.99997078
 On Iteration in Bisection 0
 a: 5.99997  b:-0.50000

 0.70060 = (-0.65257 + 2.05376)/2.0
 sum -  nocc_ = 2.00000000
 On Iteration in Bisection 1
 a: 2.00000  b:-0.50000

 0.02401 = (-0.65257 + 0.70060)/2.0
 sum -  nocc_ = 0.00000000
 ef = 0.02401 sum = 1.00000 

 Iter: 1  T:      100.000  val:0.024014  sumni 0.00000
 ne = 1.0000

 iter:2  failiter:2  energy:     -1.999057266056  total:     -1.117095251740  error:     -0.487033226482
 In Bisection function HOMO = -0.641  LUMO =  4.796

 2.07749 = (-0.64127 + 4.79625)/2.0
 sum -  nocc_ = 5.99997163
 On Iteration in Bisection 0
 a: 5.99997  b:-0.50000

 0.71811 = (-0.64127 + 2.07749)/2.0
 sum -  nocc_ = 2.00000000
 On Iteration in Bisection 1
 a: 2.00000  b:-0.50000

 0.03842 = (-0.64127 + 0.71811)/2.0
 sum -  nocc_ = 0.00000000
 ef = 0.03842 sum = 1.00000 

 Iter: 2  T:      100.000  val:0.038421  sumni 0.00000
 ne = 1.0000

 iter:3  failiter:3  energy:     -1.990811568216  total:     -1.108849553899  error:      0.008245697841
 In Bisection function HOMO = -0.639  LUMO =  4.801

 2.08103 = (-0.63924 + 4.80130)/2.0
 sum -  nocc_ = 5.99998268
 On Iteration in Bisection 0
 a: 5.99998  b:-0.50000

 0.72090 = (-0.63924 + 2.08103)/2.0
 sum -  nocc_ = 2.00000000
 On Iteration in Bisection 1
 a: 2.00000  b:-0.50000

 0.04083 = (-0.63924 + 0.72090)/2.0
 sum -  nocc_ = 0.00000000
 ef = 0.04083 sum = 1.00000 

 Iter: 3  T:      100.000  val:0.040831  sumni 0.00000
 ne = 1.0000

 iter:4  failiter:4  energy:     -1.989206030914  total:     -1.107244016597  error:      0.001605537302
 In Bisection function HOMO = -0.639  LUMO =  4.802

 2.08163 = (-0.63888 + 4.80215)/2.0
 sum -  nocc_ = 5.99998422
 On Iteration in Bisection 0
 a: 5.99998  b:-0.50000

 0.72138 = (-0.63888 + 2.08163)/2.0
 sum -  nocc_ = 2.00000000
 On Iteration in Bisection 1
 a: 2.00000  b:-0.50000

 0.04125 = (-0.63888 + 0.72138)/2.0
 sum -  nocc_ = 0.00000000
 ef = 0.04125 sum = 1.00000 

 Iter: 4  T:      100.000  val:0.041250  sumni 0.00000
 ne = 1.0000

 iter:5  failiter:5  energy:     -1.988921580411  total:     -1.106959566094  error:      0.000284450503
 In Bisection function HOMO = -0.639  LUMO =  4.802

 2.08175 = (-0.63881 + 4.80230)/2.0
 sum -  nocc_ = 5.99998450
 On Iteration in Bisection 0
 a: 5.99998  b:-0.50000

 0.72147 = (-0.63881 + 2.08175)/2.0
 sum -  nocc_ = 2.00000000
 On Iteration in Bisection 1
 a: 2.00000  b:-0.50000

 0.04133 = (-0.63881 + 0.72147)/2.0
 sum -  nocc_ = 0.00000000
 ef = 0.04133 sum = 1.00000 

 Iter: 5  T:      100.000  val:0.041329  sumni 0.00000
 ne = 1.0000

 iter:6  failiter:6  energy:     -1.988867783673  total:     -1.106905769357  error:      0.000053796737
 In Bisection function HOMO = -0.639  LUMO =  4.802

 2.08177 = (-0.63880 + 4.80234)/2.0
 sum -  nocc_ = 5.99998456
 On Iteration in Bisection 0
 a: 5.99998  b:-0.50000

 0.72149 = (-0.63880 + 2.08177)/2.0
 sum -  nocc_ = 2.00000000
 On Iteration in Bisection 1
 a: 2.00000  b:-0.50000

 0.04134 = (-0.63880 + 0.72149)/2.0
 sum -  nocc_ = 0.00000000
 ef = 0.04134 sum = 1.00000 

 Iter: 6  T:      100.000  val:0.041344  sumni 0.00000
 ne = 1.0000

 iter:7  failiter:7  energy:     -1.988857168643  total:     -1.106895154326  error:      0.000010615030
 In Bisection function HOMO = -0.639  LUMO =  4.802

 2.08177 = (-0.63879 + 4.80234)/2.0
 sum -  nocc_ = 5.99998457
 On Iteration in Bisection 0
 a: 5.99998  b:-0.50000

 0.72149 = (-0.63879 + 2.08177)/2.0
 sum -  nocc_ = 2.00000000
 On Iteration in Bisection 1
 a: 2.00000  b:-0.50000

 0.04135 = (-0.63879 + 0.72149)/2.0
 sum -  nocc_ = 0.00000000
 ef = 0.04135 sum = 1.00000 

 Iter: 7  T:      100.000  val:0.041347  sumni 0.00000
 ne = 1.0000

 iter:8  failiter:8  energy:     -1.988855033414  total:     -1.106893019098  error:      0.000002135229
 In Bisection function HOMO = -0.639  LUMO =  4.802

 2.08177 = (-0.63879 + 4.80234)/2.0
 sum -  nocc_ = 5.99998458
 On Iteration in Bisection 0
 a: 5.99998  b:-0.50000

 0.72149 = (-0.63879 + 2.08177)/2.0
 sum -  nocc_ = 2.00000000
 On Iteration in Bisection 1
 a: 2.00000  b:-0.50000

 0.04135 = (-0.63879 + 0.72149)/2.0
 sum -  nocc_ = 0.00000000
 ef = 0.04135 sum = 1.00000 

 Iter: 8  T:      100.000  val:0.041348  sumni 0.00000
 ne = 1.0000

 iter:9  failiter:9  energy:     -1.988854600699  total:     -1.106892586382  error:      0.000000432715
 In Bisection function HOMO = -0.639  LUMO =  4.802

 2.08177 = (-0.63879 + 4.80234)/2.0
 sum -  nocc_ = 5.99998458
 On Iteration in Bisection 0
 a: 5.99998  b:-0.50000

 0.72149 = (-0.63879 + 2.08177)/2.0
 sum -  nocc_ = 2.00000000
 On Iteration in Bisection 1
 a: 2.00000  b:-0.50000

 0.04135 = (-0.63879 + 0.72149)/2.0
 sum -  nocc_ = 0.00000000
 ef = 0.04135 sum = 1.00000 

 Iter: 9  T:      100.000  val:0.041348  sumni 0.00000
 ne = 1.0000

 iter:10  failiter:10  energy:     -1.988854512800  total:     -1.106892498483  error:      0.000000087899
 In Bisection function HOMO = -0.639  LUMO =  4.802

 2.08177 = (-0.63879 + 4.80234)/2.0
 sum -  nocc_ = 5.99998458
 On Iteration in Bisection 0
 a: 5.99998  b:-0.50000

 0.72149 = (-0.63879 + 2.08177)/2.0
 sum -  nocc_ = 2.00000000
 On Iteration in Bisection 1
 a: 2.00000  b:-0.50000

 0.04135 = (-0.63879 + 0.72149)/2.0
 sum -  nocc_ = 0.00000000
 ef = 0.04135 sum = 1.00000 

 Iter: 10  T:      100.000  val:0.041348  sumni 0.00000
 ne = 1.0000

 iter:11  failiter:11  energy:     -1.988854494937  total:     -1.106892480621  error:      0.000000017862
 In Bisection function HOMO = -0.639  LUMO =  4.802

 2.08177 = (-0.63879 + 4.80234)/2.0
 sum -  nocc_ = 5.99998458
 On Iteration in Bisection 0
 a: 5.99998  b:-0.50000

 0.72149 = (-0.63879 + 2.08177)/2.0
 sum -  nocc_ = 2.00000000
 On Iteration in Bisection 1
 a: 2.00000  b:-0.50000

 0.04135 = (-0.63879 + 0.72149)/2.0
 sum -  nocc_ = 0.00000000
 ef = 0.04135 sum = 1.00000 

 Iter: 11  T:      100.000  val:0.041348  sumni 0.00000
 ne = 1.0000

 iter:12  failiter:12  energy:     -1.988854491309  total:     -1.106892476992  error:      0.000000003629
 In Bisection function HOMO = -0.639  LUMO =  4.802

 2.08177 = (-0.63879 + 4.80234)/2.0
 sum -  nocc_ = 5.99998458
 On Iteration in Bisection 0
 a: 5.99998  b:-0.50000

 0.72149 = (-0.63879 + 2.08177)/2.0
 sum -  nocc_ = 2.00000000
 On Iteration in Bisection 1
 a: 2.00000  b:-0.50000

 0.04135 = (-0.63879 + 0.72149)/2.0
 sum -  nocc_ = 0.00000000
 ef = 0.04135 sum = 1.00000 

 Iter: 12  T:      100.000  val:0.041348  sumni 0.00000
 ne = 1.0000

 iter:13  failiter:13  energy:     -1.988854490572  total:     -1.106892476255  error:      0.000000000737
 In Bisection function HOMO = -0.639  LUMO =  4.802

 2.08177 = (-0.63879 + 4.80234)/2.0
 sum -  nocc_ = 5.99998458
 On Iteration in Bisection 0
 a: 5.99998  b:-0.50000

 0.72149 = (-0.63879 + 2.08177)/2.0
 sum -  nocc_ = 2.00000000
 On Iteration in Bisection 1
 a: 2.00000  b:-0.50000

 0.04135 = (-0.63879 + 0.72149)/2.0
 sum -  nocc_ = 0.00000000
 ef = 0.04135 sum = 1.00000 

 Iter: 13  T:      100.000  val:0.041348  sumni 0.00000
 ne = 1.0000

 iter:14  failiter:14  energy:     -1.988854490422  total:     -1.106892476106  error:      0.000000000150
 In Bisection function HOMO = -0.639  LUMO =  4.802

 2.08177 = (-0.63879 + 4.80234)/2.0
 sum -  nocc_ = 5.99998458
 On Iteration in Bisection 0
 a: 5.99998  b:-0.50000

 0.72149 = (-0.63879 + 2.08177)/2.0
 sum -  nocc_ = 2.00000000
 On Iteration in Bisection 1
 a: 2.00000  b:-0.50000

 0.04135 = (-0.63879 + 0.72149)/2.0
 sum -  nocc_ = 0.00000000
 ef = 0.04135 sum = 1.00000 

 Iter: 14  T:      100.000  val:0.041348  sumni 0.00000
 ne = 1.0000

 iter:15  failiter:15  energy:     -1.988854490392  total:     -1.106892476075  error:      0.000000000030
 In Bisection function HOMO = -0.639  LUMO =  4.802

 2.08177 = (-0.63879 + 4.80234)/2.0
 sum -  nocc_ = 5.99998458
 On Iteration in Bisection 0
 a: 5.99998  b:-0.50000

 0.72149 = (-0.63879 + 2.08177)/2.0
 sum -  nocc_ = 2.00000000
 On Iteration in Bisection 1
 a: 2.00000  b:-0.50000

 0.04135 = (-0.63879 + 0.72149)/2.0
 sum -  nocc_ = 0.00000000
 ef = 0.04135 sum = 1.00000 

 Iter: 15  T:      100.000  val:0.041348  sumni 0.00000
 ne = 1.0000

 iter:16  failiter:16  energy:     -1.988854490386  total:     -1.106892476069  error:      0.000000000006
 In Bisection function HOMO = -0.639  LUMO =  4.802

 2.08177 = (-0.63879 + 4.80234)/2.0
 sum -  nocc_ = 5.99998458
 On Iteration in Bisection 0
 a: 5.99998  b:-0.50000

 0.72149 = (-0.63879 + 2.08177)/2.0
 sum -  nocc_ = 2.00000000
 On Iteration in Bisection 1
 a: 2.00000  b:-0.50000

 0.04135 = (-0.63879 + 0.72149)/2.0
 sum -  nocc_ = 0.00000000
 ef = 0.04135 sum = 1.00000 

 Iter: 16  T:      100.000  val:0.041348  sumni 0.00000
 ne = 1.0000

 iter:17  failiter:17  energy:     -1.988854490385  total:     -1.106892476068  error:      0.000000000001
 In Bisection function HOMO = -0.639  LUMO =  4.802

 2.08177 = (-0.63879 + 4.80234)/2.0
 sum -  nocc_ = 5.99998458
 On Iteration in Bisection 0
 a: 5.99998  b:-0.50000

 0.72149 = (-0.63879 + 2.08177)/2.0
 sum -  nocc_ = 2.00000000
 On Iteration in Bisection 1
 a: 2.00000  b:-0.50000

 0.04135 = (-0.63879 + 0.72149)/2.0
 sum -  nocc_ = 0.00000000
 ef = 0.04135 sum = 1.00000 

 Iter: 17  T:      100.000  val:0.041348  sumni 0.00000
 ne = 1.0000

 iter:18  failiter:18  energy:     -1.988854490384  total:     -1.106892476068  error:      0.000000000000
 FTHFEnergy =    -1.106892
 FD_dis[0] = 1.00000000 with -0.638794 eig value
 FD_dis[1] = 0.00000000 with 0.222604 eig value
 FD_dis[2] = 0.00000000 with 0.445469 eig value
 FD_dis[3] = 0.00000000 with 1.057535 eig value
 FD_dis[4] = 0.00000000 with 1.313546 eig value
 FD_dis[5] = 0.00000000 with 1.313546 eig value
 FD_dis[6] = 0.00000000 with 2.078266 eig value
 FD_dis[7] = 0.00000000 with 2.138016 eig value
 FD_dis[8] = 0.00000000 with 2.138016 eig value
 FD_dis[9] = 0.00000000 with 4.802343 eig value
*** PSI4 exiting successfully. Buy a developer a beer!
