    -----------------------------------------------------------------------
          PSI4: An Open-Source Ab Initio Electronic Structure Package
                              PSI 4.0 Driver

               Git: Rev {master} 556e8139d3cfa1f96ccffe2cdf22cc56a185d2b2

    J. M. Turney, A. C. Simmonett, R. M. Parrish, E. G. Hohenstein,
    F. A. Evangelista, J. T. Fermann, B. J. Mintz, L. A. Burns, J. J. Wilke,
    M. L. Abrams, N. J. Russ, M. L. Leininger, C. L. Janssen, E. T. Seidl,
    W. D. Allen, H. F. Schaefer, R. A. King, E. F. Valeev, C. D. Sherrill,
    and T. D. Crawford, WIREs Comput. Mol. Sci. 2, 556-565 (2012)
    (doi: 10.1002/wcms.93)

                         Additional Contributions by
    A. E. DePrince, M. Saitow, U. Bozkaya, A. Yu. Sokolov
    -----------------------------------------------------------------------

    Process ID:  11945
    PSI4DATADIR: /Users/kevinhannon/Programs/psi4cmake/psi4/lib
    Memory level set to 256.000 MB

  ==> Input File <==

--------------------------------------------------------------------------

# PYTHONPATH must include directory above plugin directory.
#     Define either externally or here, then import plugin.
sys.path.insert(0, '/Users/kevinhannon/Programs/Quantum_Programs/Quantum-Programs/GS/')
import scf

molecule {
0 1
H
H 1 2.00000
symmetry c1
units angstrom
}


set {
  basis cc-pvdz
  reference rhf
  scf_type  pk
}

set scf {
  DO_FTHF true
  MAX_ITER 130
  MAX_TEMP 100
  TEMP_INCREMENT 0
  bisect  true
  bisect_iter  40
}
energy('rhf')

energy('scf')


--------------------------------------------------------------------------

*** tstart() called on Kevins-MacBook-Pro.local
*** at Fri Apr 10 18:02:11 2015

/Users/kevinhannon/Programs/Quantum_Programs/Quantum-Programs/GS/scf/scf.so loaded.

*** tstart() called on Kevins-MacBook-Pro.local
*** at Fri Apr 10 18:02:11 2015


         ---------------------------------------------------------
                                   SCF
            by Justin Turney, Rob Parrish, and Andy Simmonett
                              RHF Reference
                        1 Threads,    256 MiB Core
         ---------------------------------------------------------

  ==> Geometry <==

    Molecular point group: c1
    Full point group: D_inf_h

    Geometry (in Angstrom), charge = 0, multiplicity = 1:

       Center              X                  Y                   Z       
    ------------   -----------------  -----------------  -----------------
           H          0.000000000000     0.000000000000    -1.000000000000
           H          0.000000000000     0.000000000000     1.000000000000

  Running in c1 symmetry.

  Rotational constants: A = ************  B =      8.36337  C =      8.36337 [cm^-1]
  Rotational constants: A = ************  B = 250727.55137  C = 250727.55137 [MHz]
  Nuclear repulsion =    0.264588604295000

  Charge       = 0
  Multiplicity = 1
  Electrons    = 2
  Nalpha       = 1
  Nbeta        = 1

  ==> Algorithm <==

  SCF Algorithm Type is PK.
  DIIS enabled.
  MOM disabled.
  Fractional occupation disabled.
  Guess Type is CORE.
  Energy threshold   = 1.00e-06
  Density threshold  = 1.00e-06
  Integral threshold = 0.00e+00

  ==> Primary Basis <==

  Basis Set: CC-PVDZ
    Number of shells: 6
    Number of basis function: 10
    Number of Cartesian functions: 10
    Spherical Harmonics?: true
    Max angular momentum: 1

  ==> Pre-Iterations <==

   -------------------------------------------------------
    Irrep   Nso     Nmo     Nalpha   Nbeta   Ndocc  Nsocc
   -------------------------------------------------------
     A         10      10       0       0       0       0
   -------------------------------------------------------
    Total      10      10       1       1       1       0
   -------------------------------------------------------

  Starting with a DF guess...

 OEINTS: Overlap, kinetic, potential, dipole, and quadrupole integrals
         stored in file 35.

  ==> Integral Setup <==

  ==> DFJK: Density-Fitted J/K Matrices <==

    J tasked:                  Yes
    K tasked:                  Yes
    wK tasked:                  No
    OpenMP threads:              1
    Integrals threads:           1
    Memory (MB):               183
    Algorithm:                Core
    Integral Cache:           NONE
    Schwarz Cutoff:          1E-12
    Fitting Condition:       1E-12

   => Auxiliary Basis Set <=

  Basis Set: 
    Number of shells: 18
    Number of basis function: 46
    Number of Cartesian functions: 50
    Spherical Harmonics?: true
    Max angular momentum: 2

  Minimum eigenvalue in the overlap matrix is 2.1676182085E-01.
  Using Symmetric Orthogonalization.
  SCF Guess: Core (One-Electron) Hamiltonian.

  ==> Iterations <==

                           Total Energy        Delta E     RMS |[F,P]|

   @DF-RHF iter   1:    -0.90107557532991   -9.01076e-01   1.40107e-02 
   @DF-RHF iter   2:    -0.92127347920375   -2.01979e-02   2.40723e-03 DIIS
   @DF-RHF iter   3:    -0.92191754161378   -6.44062e-04   7.65867e-05 DIIS
   @DF-RHF iter   4:    -0.92191806462956   -5.23016e-07   5.48476e-07 DIIS

  DF guess converged.

  ==> Integral Setup <==

 MINTS: Wrapper to libmints.
   by Justin Turney

   Calculation information:
      Number of atoms:                   2
      Number of AO shells:               6
      Number of SO shells:               6
      Number of primitives:             10
      Number of atomic orbitals:        10
      Number of basis functions:        10

      Number of irreps:                  1
      Integral cutoff                 0.00e+00
      Number of functions per irrep: [  10 ]

 OEINTS: Overlap, kinetic, potential, dipole, and quadrupole integrals
         stored in file 35.

      Computing two-electron integrals...done
      Computed 512 non-zero two-electron integrals.
        Stored in file 33.

	Batch   1 pq = [       0,      55] index = [             0,1540]
  ==> DiskJK: Disk-Based J/K Matrices <==

    J tasked:                  Yes
    K tasked:                  Yes
    wK tasked:                  No
    Memory (MB):               183
    Schwarz Cutoff:          1E-12

   @RHF iter   5:    -0.92190859155182    9.47308e-06   3.71930e-06 DIIS
   @RHF iter   6:    -0.92190859288430   -1.33247e-09   6.13577e-07 DIIS

  ==> Post-Iterations <==

    Orbital Energies (a.u.)
    -----------------------

    Doubly Occupied:                                                      

       1A     -0.385713  

    Virtual:                                                              

       2A     -0.035850     3A      0.653204     4A      0.670205  
       5A      1.342132     6A      1.453316     7A      1.453316  
       8A      1.501581     9A      1.501581    10A      1.708233  

    Final Occupation by Irrep:
              A 
    DOCC [     1 ]

  Energy converged.

  @RHF Final Energy:    -0.92190859288430

   => Energetics <=

    Nuclear Repulsion Energy =              0.2645886042950000
    One-Electron Energy =                  -1.6015669737464124
    Two-Electron Energy =                   0.4150697765671156
    DFT Exchange-Correlation Energy =       0.0000000000000000
    Empirical Dispersion Energy =           0.0000000000000000
    PCM Polarization Energy =               0.0000000000000000
    EFP Energy =                            0.0000000000000000
    Total Energy =                         -0.9219085928842967

    Alert: EFP and PCM quantities not currently incorporated into SCF psivars.

Properties will be evaluated at   0.000000,   0.000000,   0.000000 Bohr
  ==> Properties <==


Properties computed using the SCF density matrix

  Nuclear Dipole Moment: (a.u.)
     X:     0.0000      Y:     0.0000      Z:     0.0000

  Electronic Dipole Moment: (a.u.)
     X:    -0.0000      Y:     0.0000      Z:     0.0000

  Dipole Moment: (a.u.)
     X:    -0.0000      Y:     0.0000      Z:     0.0000     Total:     0.0000

  Dipole Moment: (Debye)
     X:    -0.0000      Y:     0.0000      Z:     0.0000     Total:     0.0000


  Saving occupied orbitals to File 180.

*** tstop() called on Kevins-MacBook-Pro.local at Fri Apr 10 18:02:11 2015
Module time:
	user time   =       0.19 seconds =       0.00 minutes
	system time =       0.01 seconds =       0.00 minutes
	total time  =          0 seconds =       0.00 minutes
Total time:
	user time   =       0.21 seconds =       0.00 minutes
	system time =       0.01 seconds =       0.00 minutes
	total time  =          0 seconds =       0.00 minutes

*** tstart() called on Kevins-MacBook-Pro.local
*** at Fri Apr 10 18:02:11 2015


         ---------------------------------------------------------
                                   SCF
            by Justin Turney, Rob Parrish, and Andy Simmonett
                              RHF Reference
                        1 Threads,    256 MiB Core
         ---------------------------------------------------------

  ==> Geometry <==

    Molecular point group: c1
    Full point group: D_inf_h

    Geometry (in Angstrom), charge = 0, multiplicity = 1:

       Center              X                  Y                   Z       
    ------------   -----------------  -----------------  -----------------
           H          0.000000000000     0.000000000000    -1.000000000000
           H          0.000000000000     0.000000000000     1.000000000000

  Running in c1 symmetry.

  Rotational constants: A = ************  B =      8.36337  C =      8.36337 [cm^-1]
  Rotational constants: A = ************  B = 250727.55137  C = 250727.55137 [MHz]
  Nuclear repulsion =    0.264588604295000

  Charge       = 0
  Multiplicity = 1
  Electrons    = 2
  Nalpha       = 1
  Nbeta        = 1

  ==> Algorithm <==

  SCF Algorithm Type is PK.
  DIIS enabled.
  MOM disabled.
  Fractional occupation disabled.
  Guess Type is CORE.
  Energy threshold   = 1.00e-08
  Density threshold  = 1.00e-08
  Integral threshold = 0.00e+00

  ==> Primary Basis <==

  Basis Set: CC-PVDZ
    Number of shells: 6
    Number of basis function: 10
    Number of Cartesian functions: 10
    Spherical Harmonics?: true
    Max angular momentum: 1

  ==> Pre-Iterations <==

   -------------------------------------------------------
    Irrep   Nso     Nmo     Nalpha   Nbeta   Ndocc  Nsocc
   -------------------------------------------------------
     A         10      10       0       0       0       0
   -------------------------------------------------------
    Total      10      10       1       1       1       0
   -------------------------------------------------------

  Starting with a DF guess...

 OEINTS: Overlap, kinetic, potential, dipole, and quadrupole integrals
         stored in file 35.

  ==> Integral Setup <==

  ==> DFJK: Density-Fitted J/K Matrices <==

    J tasked:                  Yes
    K tasked:                  Yes
    wK tasked:                  No
    OpenMP threads:              1
    Integrals threads:           1
    Memory (MB):               183
    Algorithm:                Core
    Integral Cache:           NONE
    Schwarz Cutoff:          1E-12
    Fitting Condition:       1E-12

   => Auxiliary Basis Set <=

  Basis Set: 
    Number of shells: 18
    Number of basis function: 46
    Number of Cartesian functions: 50
    Spherical Harmonics?: true
    Max angular momentum: 2

  Minimum eigenvalue in the overlap matrix is 2.1676182085E-01.
  Using Symmetric Orthogonalization.
  SCF Guess: Core (One-Electron) Hamiltonian.

  ==> Iterations <==

                           Total Energy        Delta E     RMS |[F,P]|

   @DF-RHF iter   1:    -0.90107557532991   -9.01076e-01   1.40107e-02 
   @DF-RHF iter   2:    -0.92127347920375   -2.01979e-02   2.40723e-03 DIIS
   @DF-RHF iter   3:    -0.92191754161378   -6.44062e-04   7.65867e-05 DIIS
   @DF-RHF iter   4:    -0.92191806462956   -5.23016e-07   5.48476e-07 DIIS
   @DF-RHF iter   5:    -0.92191806465027   -2.07077e-11   6.80784e-11 DIIS

  DF guess converged.

  ==> Integral Setup <==

 MINTS: Wrapper to libmints.
   by Justin Turney

   Calculation information:
      Number of atoms:                   2
      Number of AO shells:               6
      Number of SO shells:               6
      Number of primitives:             10
      Number of atomic orbitals:        10
      Number of basis functions:        10

      Number of irreps:                  1
      Integral cutoff                 0.00e+00
      Number of functions per irrep: [  10 ]

 OEINTS: Overlap, kinetic, potential, dipole, and quadrupole integrals
         stored in file 35.

      Computing two-electron integrals...done
      Computed 512 non-zero two-electron integrals.
        Stored in file 33.

	Batch   1 pq = [       0,      55] index = [             0,1540]
  ==> DiskJK: Disk-Based J/K Matrices <==

    J tasked:                  Yes
    K tasked:                  Yes
    wK tasked:                  No
    Memory (MB):               183
    Schwarz Cutoff:          1E-12

   @RHF iter   6:    -0.92190859155187    9.47310e-06   3.71923e-06 DIIS
   @RHF iter   7:    -0.92190859288430   -1.33242e-09   6.13565e-07 DIIS
   @RHF iter   8:    -0.92190859292459   -4.02949e-11   2.17636e-08 DIIS
   @RHF iter   9:    -0.92190859292464   -4.52971e-14   4.27708e-14 DIIS

  ==> Post-Iterations <==

    Orbital Energies (a.u.)
    -----------------------

    Doubly Occupied:                                                      

       1A     -0.385713  

    Virtual:                                                              

       2A     -0.035850     3A      0.653204     4A      0.670205  
       5A      1.342132     6A      1.453316     7A      1.453316  
       8A      1.501581     9A      1.501581    10A      1.708234  

    Final Occupation by Irrep:
              A 
    DOCC [     1 ]

  Energy converged.

  @RHF Final Energy:    -0.92190859292464

   => Energetics <=

    Nuclear Repulsion Energy =              0.2645886042950000
    One-Electron Energy =                  -1.6015686072048312
    Two-Electron Energy =                   0.4150714099851928
    DFT Exchange-Correlation Energy =       0.0000000000000000
    Empirical Dispersion Energy =           0.0000000000000000
    PCM Polarization Energy =               0.0000000000000000
    EFP Energy =                            0.0000000000000000
    Total Energy =                         -0.9219085929246383

    Alert: EFP and PCM quantities not currently incorporated into SCF psivars.

Properties will be evaluated at   0.000000,   0.000000,   0.000000 Bohr
  ==> Properties <==


Properties computed using the SCF density matrix

  Nuclear Dipole Moment: (a.u.)
     X:     0.0000      Y:     0.0000      Z:     0.0000

  Electronic Dipole Moment: (a.u.)
     X:     0.0000      Y:     0.0000      Z:     0.0000

  Dipole Moment: (a.u.)
     X:     0.0000      Y:     0.0000      Z:     0.0000     Total:     0.0000

  Dipole Moment: (Debye)
     X:     0.0000      Y:     0.0000      Z:     0.0000     Total:     0.0000


  Saving occupied orbitals to File 180.

*** tstop() called on Kevins-MacBook-Pro.local at Fri Apr 10 18:02:11 2015
Module time:
	user time   =       0.19 seconds =       0.00 minutes
	system time =       0.01 seconds =       0.00 minutes
	total time  =          0 seconds =       0.00 minutes
Total time:
	user time   =       0.41 seconds =       0.01 minutes
	system time =       0.02 seconds =       0.00 minutes
	total time  =          0 seconds =       0.00 minutes
Reading options from the SCF block
Calling plugin scf.so.
    Molecular point group: c1
    Full point group: D_inf_h

    Geometry (in Angstrom), charge = 0, multiplicity = 1:

       Center              X                  Y                   Z       
    ------------   -----------------  -----------------  -----------------
           H          0.000000000000     0.000000000000    -1.000000000000
           H          0.000000000000     0.000000000000     1.000000000000


    Nuclear repulsion energy:       0.26458860

  ## Overlap (Symmetry 0) ##
  Irrep: 1 Size: 10 x 10

                 1                   2                   3                   4                   5

    1     1.00000000000000     0.68486025149275     0.00000000000000     0.00000000000000     0.00000000000000
    2     0.68486025149275     1.00000000000000     0.00000000000000     0.00000000000000     0.00000000000000
    3     0.00000000000000     0.00000000000000     1.00000000000000     0.00000000000000     0.00000000000000
    4     0.00000000000000     0.00000000000000     0.00000000000000     1.00000000000000     0.00000000000000
    5     0.00000000000000     0.00000000000000     0.00000000000000     0.00000000000000     1.00000000000000
    6     0.02915955126751     0.16965537816658     0.03745231364143     0.00000000000000     0.00000000000000
    7     0.16965537816658     0.41839060327982     0.12237772805489     0.00000000000000     0.00000000000000
    8    -0.03745231364143    -0.12237772805489    -0.05216976205434     0.00000000000000     0.00000000000000
    9     0.00000000000000     0.00000000000000     0.00000000000000     0.00555904858854     0.00000000000000
   10     0.00000000000000     0.00000000000000     0.00000000000000     0.00000000000000     0.00555904858854

                 6                   7                   8                   9                  10

    1     0.02915955126751     0.16965537816658    -0.03745231364143     0.00000000000000     0.00000000000000
    2     0.16965537816658     0.41839060327982    -0.12237772805489     0.00000000000000     0.00000000000000
    3     0.03745231364143     0.12237772805489    -0.05216976205434     0.00000000000000     0.00000000000000
    4     0.00000000000000     0.00000000000000     0.00000000000000     0.00555904858854     0.00000000000000
    5     0.00000000000000     0.00000000000000     0.00000000000000     0.00000000000000     0.00555904858854
    6     1.00000000000000     0.68486025149275    -0.00000000000000     0.00000000000000     0.00000000000000
    7     0.68486025149275     1.00000000000000    -0.00000000000000     0.00000000000000     0.00000000000000
    8    -0.00000000000000    -0.00000000000000     1.00000000000000     0.00000000000000     0.00000000000000
    9     0.00000000000000     0.00000000000000     0.00000000000000     1.00000000000000     0.00000000000000
   10     0.00000000000000     0.00000000000000     0.00000000000000     0.00000000000000     1.00000000000000



  ## Kinetic (Symmetry 0) ##
  Irrep: 1 Size: 10 x 10

                 1                   2                   3                   4                   5

    1     0.96945722711242     0.20123413106538     0.00000000000000     0.00000000000000     0.00000000000000
    2     0.20123413106538     0.18300000000000     0.00000000000000     0.00000000000000     0.00000000000000
    3     0.00000000000000     0.00000000000000     1.81750000000000     0.00000000000000     0.00000000000000
    4     0.00000000000000     0.00000000000000     0.00000000000000     1.81750000000000     0.00000000000000
    5     0.00000000000000     0.00000000000000     0.00000000000000     0.00000000000000     1.81750000000000
    6    -0.02463484522439     0.00342069962389    -0.03197742919620     0.00000000000000     0.00000000000000
    7     0.00342069962389     0.03208911219552     0.02576723108916     0.00000000000000     0.00000000000000
    8     0.03197742919620    -0.02576723108916     0.06014421292994     0.00000000000000     0.00000000000000
    9     0.00000000000000     0.00000000000000     0.00000000000000    -0.01088085185901     0.00000000000000
   10     0.00000000000000     0.00000000000000     0.00000000000000     0.00000000000000    -0.01088085185901

                 6                   7                   8                   9                  10

    1    -0.02463484522439     0.00342069962389     0.03197742919620     0.00000000000000     0.00000000000000
    2     0.00342069962389     0.03208911219552    -0.02576723108916     0.00000000000000     0.00000000000000
    3    -0.03197742919620     0.02576723108916     0.06014421292994     0.00000000000000     0.00000000000000
    4     0.00000000000000     0.00000000000000     0.00000000000000    -0.01088085185901     0.00000000000000
    5     0.00000000000000     0.00000000000000     0.00000000000000     0.00000000000000    -0.01088085185901
    6     0.96945722711242     0.20123413106538    -0.00000000000000     0.00000000000000     0.00000000000000
    7     0.20123413106538     0.18300000000000    -0.00000000000000     0.00000000000000     0.00000000000000
    8    -0.00000000000000    -0.00000000000000     1.81750000000000     0.00000000000000     0.00000000000000
    9     0.00000000000000     0.00000000000000     0.00000000000000     1.81750000000000     0.00000000000000
   10     0.00000000000000     0.00000000000000     0.00000000000000     0.00000000000000     1.81750000000000



  ## Potential (Symmetry 0) ##
  Irrep: 1 Size: 10 x 10

                 1                   2                   3                   4                   5

    1    -1.64245030749749    -0.83090421435570    -0.04404321642156     0.00000000000000     0.00000000000000
    2    -0.83090421435570    -0.81977456812285    -0.04131391263496     0.00000000000000     0.00000000000000
    3    -0.04404321642156    -0.04131391263496    -1.18440886444608     0.00000000000000     0.00000000000000
    4     0.00000000000000     0.00000000000000     0.00000000000000    -1.16529976471588     0.00000000000000
    5     0.00000000000000     0.00000000000000     0.00000000000000     0.00000000000000    -1.16529976471588
    6    -0.03135945270671    -0.19788545769574    -0.03911234377032     0.00000000000000     0.00000000000000
    7    -0.19788545769574    -0.36008962031495    -0.13126998009967     0.00000000000000     0.00000000000000
    8     0.03911234377032     0.13126998009967     0.05411256650321     0.00000000000000     0.00000000000000
    9     0.00000000000000     0.00000000000000     0.00000000000000    -0.00531823400942     0.00000000000000
   10     0.00000000000000     0.00000000000000     0.00000000000000     0.00000000000000    -0.00531823400942

                 6                   7                   8                   9                  10

    1    -0.03135945270671    -0.19788545769574     0.03911234377032     0.00000000000000     0.00000000000000
    2    -0.19788545769574    -0.36008962031495     0.13126998009967     0.00000000000000     0.00000000000000
    3    -0.03911234377032    -0.13126998009967     0.05411256650321     0.00000000000000     0.00000000000000
    4     0.00000000000000     0.00000000000000     0.00000000000000    -0.00531823400942     0.00000000000000
    5     0.00000000000000     0.00000000000000     0.00000000000000     0.00000000000000    -0.00531823400942
    6    -1.64245030749749    -0.83090421435570     0.04404321642156     0.00000000000000     0.00000000000000
    7    -0.83090421435570    -0.81977456812285     0.04131391263496     0.00000000000000     0.00000000000000
    8     0.04404321642156     0.04131391263496    -1.18440886444608     0.00000000000000     0.00000000000000
    9     0.00000000000000     0.00000000000000     0.00000000000000    -1.16529976471588     0.00000000000000
   10     0.00000000000000     0.00000000000000     0.00000000000000     0.00000000000000    -1.16529976471588



  ## One Electron Ints (Symmetry 0) ##
  Irrep: 1 Size: 10 x 10

                 1                   2                   3                   4                   5

    1    -0.67299308038507    -0.62967008329032    -0.04404321642156     0.00000000000000     0.00000000000000
    2    -0.62967008329032    -0.63677456812285    -0.04131391263496     0.00000000000000     0.00000000000000
    3    -0.04404321642156    -0.04131391263496     0.63309113555392     0.00000000000000     0.00000000000000
    4     0.00000000000000     0.00000000000000     0.00000000000000     0.65220023528413     0.00000000000000
    5     0.00000000000000     0.00000000000000     0.00000000000000     0.00000000000000     0.65220023528413
    6    -0.05599429793110    -0.19446475807185    -0.07108977296652     0.00000000000000     0.00000000000000
    7    -0.19446475807185    -0.32800050811943    -0.10550274901051     0.00000000000000     0.00000000000000
    8     0.07108977296652     0.10550274901051     0.11425677943315     0.00000000000000     0.00000000000000
    9     0.00000000000000     0.00000000000000     0.00000000000000    -0.01619908586843     0.00000000000000
   10     0.00000000000000     0.00000000000000     0.00000000000000     0.00000000000000    -0.01619908586843

                 6                   7                   8                   9                  10

    1    -0.05599429793110    -0.19446475807185     0.07108977296652     0.00000000000000     0.00000000000000
    2    -0.19446475807185    -0.32800050811943     0.10550274901051     0.00000000000000     0.00000000000000
    3    -0.07108977296652    -0.10550274901051     0.11425677943315     0.00000000000000     0.00000000000000
    4     0.00000000000000     0.00000000000000     0.00000000000000    -0.01619908586843     0.00000000000000
    5     0.00000000000000     0.00000000000000     0.00000000000000     0.00000000000000    -0.01619908586843
    6    -0.67299308038507    -0.62967008329032     0.04404321642156     0.00000000000000     0.00000000000000
    7    -0.62967008329032    -0.63677456812285     0.04131391263496     0.00000000000000     0.00000000000000
    8     0.04404321642156     0.04131391263496     0.63309113555392     0.00000000000000     0.00000000000000
    9     0.00000000000000     0.00000000000000     0.00000000000000     0.65220023528413     0.00000000000000
   10     0.00000000000000     0.00000000000000     0.00000000000000     0.00000000000000     0.65220023528413




	There are 0 unique integrals

  ## Fock (Symmetry 0) ##
  Irrep: 1 Size: 10 x 10

                 1                   2                   3                   4                   5

    1    -0.43602434418223    -0.36108750226005    -0.05089486440542    -0.00000000000000     0.00000000000000
    2    -0.36108750226005    -0.31942084175496     0.03599399554867     0.00000000000000     0.00000000000000
    3    -0.05089486440542     0.03599399554867     0.66383013621384     0.00000000000000     0.00000000000000
    4    -0.00000000000000     0.00000000000000     0.00000000000000     0.65231044515308     0.00000000000000
    5     0.00000000000000     0.00000000000000     0.00000000000000     0.00000000000000     0.65231044515308
    6     0.01644303024737    -0.02084933679430     0.00744159990384    -0.00000000000000     0.00000000000000
    7    -0.02084933679430    -0.10106415052489    -0.13900153065032    -0.00000000000000     0.00000000000000
    8    -0.00744159990384     0.13900153065032     0.15582420093059     0.00000000000000     0.00000000000000
    9     0.00000000000000    -0.00000000000000     0.00000000000000    -0.01982531132785     0.00000000000000
   10     0.00000000000000     0.00000000000000     0.00000000000000     0.00000000000000    -0.01982531132785

                 6                   7                   8                   9                  10

    1     0.01644303024737    -0.02084933679430    -0.00744159990384     0.00000000000000     0.00000000000000
    2    -0.02084933679430    -0.10106415052489     0.13900153065032    -0.00000000000000     0.00000000000000
    3     0.00744159990384    -0.13900153065032     0.15582420093059     0.00000000000000     0.00000000000000
    4    -0.00000000000000    -0.00000000000000     0.00000000000000    -0.01982531132785     0.00000000000000
    5     0.00000000000000     0.00000000000000     0.00000000000000     0.00000000000000    -0.01982531132785
    6    -0.43602434418223    -0.36108750226005     0.05089486440542    -0.00000000000000     0.00000000000000
    7    -0.36108750226005    -0.31942084175496    -0.03599399554867     0.00000000000000     0.00000000000000
    8     0.05089486440542    -0.03599399554867     0.66383013621384    -0.00000000000000     0.00000000000000
    9    -0.00000000000000     0.00000000000000    -0.00000000000000     0.65231044515308     0.00000000000000
   10     0.00000000000000     0.00000000000000     0.00000000000000     0.00000000000000     0.65231044515308



  ## C (Symmetry 0) ##
  Irrep: 1 Size: 10 x 10

                 1                   2                   3                   4                   5

    1    -0.95231697315219    -0.86626264251574    -0.05707005938136     0.03378299654155     0.00605416587934
    2     1.09120594608265     0.83976573373228    -0.00841270585799    -0.22864068213131    -0.09746011031444
    3     0.53213873169246    -0.47945560035404    -0.05355635969689    -0.06367711377288    -0.03930380526496
    4    -0.41123400292756     0.55645344861671    -0.14580035432055    -0.00196545843877    -0.00000000000000
    5     0.00160773465256     0.07610126340285    -0.70488828038504     0.00000000000000     0.00000000000000
    6     0.03175578826486    -0.00142637346329    -0.00354631886750    -0.38222426099012    -0.91709411117355
    7    -0.25387831894358    -0.11388565197074     0.01048319579933     0.99698160167701     0.40646456298457
    8     0.07927437174273     0.03557663524850    -0.00248240664735    -0.02424030199445    -0.71926294528488
    9     0.00114304373271    -0.00154668782849     0.00040525875790     0.70711497577215     0.00000000000000
   10    -0.06525934392819     0.13272932205865     0.69338706363929     0.00000000000000     0.00000000000000

                 6                   7                   8                   9                  10

    1    -0.33445304671724    -0.41699890177863     0.08513787773365     0.03378299654156    -0.03032031325829
    2    -0.52041066192615    -0.33207951401634    -0.06479849853798    -0.22864068213131     0.02989411723133
    3     0.49295438444704    -0.50794748290073     0.05177632513963    -0.06367711377288     0.00292932612734
    4     0.41123400292755    -0.55645344861670    -0.14580035432055     0.00196545843877    -0.00000000000000
    5     0.00124497402568     0.07684029946117     0.70104454028844     0.00000000000000     0.00000000000000
    6    -0.02285428498333    -0.04113467287959     0.00106553701480    -0.38222426099012    -0.90571440172375
    7     0.11571839173740     0.15485701724892     0.00630654202993     0.99698160167703     0.35798395899567
    8    -0.02365941754066    -0.03926900186213    -0.00219358555143    -0.02424030199445     0.70788323583509
    9    -0.00114304373271     0.00154668782849     0.00040525875790    -0.70711497577214     0.00000000000000
   10     0.06525141469385    -0.13315443013254     0.68947920901675     0.00000000000000     0.00000000000000




 In Bisection function HOMO = -0.810  LUMO =  0.859

 0.02434 = (-0.81013 + 0.85881)/2.0
 sum -  nocc_ = 3.00000000
 On Iteration in Bisection 0
 a: 3.00000  b:-0.50000

 -0.39289 = (-0.81013 + 0.02434)/2.0
 sum -  nocc_ = 1.00000000
 On Iteration in Bisection 1
 a: 1.00000  b:-0.50000

 -0.60151 = (-0.81013 + -0.39289)/2.0
 sum -  nocc_ = 1.00000000
 On Iteration in Bisection 2
 a: 1.00000  b:-0.50000

 -0.70582 = (-0.81013 + -0.60151)/2.0
 sum -  nocc_ = 0.00000000
 ef = -0.70582 sum = 1.00000 

 Iter: 0  T:      100.000  val:-0.705817  sumni 0.00000
 ne = 1.0000

Nuc Replusion =       0.264588604295
 1st iteration =       0.641949016861
 In Bisection function HOMO = -0.280  LUMO =  1.833

 0.77632 = (-0.28032 + 1.83296)/2.0
 sum -  nocc_ = 3.00000000
 On Iteration in Bisection 0
 a: 3.00000  b:-0.50000

 0.24800 = (-0.28032 + 0.77632)/2.0
 sum -  nocc_ = 1.00000000
 On Iteration in Bisection 1
 a: 1.00000  b:-0.50000

 -0.01616 = (-0.28032 + 0.24800)/2.0
 sum -  nocc_ = 0.00000000
 ef = -0.01616 sum = 1.00000 

 Iter: 0  T:      100.000  val:-0.016157  sumni 0.00000
 ne = 1.0000

 iter:1  failiter:1  energy:     -1.040855787433  total:     -0.776267183138  error:     -0.118947194508
 In Bisection function HOMO = -0.294  LUMO =  1.908

 0.80699 = (-0.29445 + 1.90842)/2.0
 sum -  nocc_ = 2.00000000
 On Iteration in Bisection 0
 a: 2.00000  b:-0.50000

 0.25627 = (-0.29445 + 0.80699)/2.0
 sum -  nocc_ = 1.00000000
 On Iteration in Bisection 1
 a: 1.00000  b:-0.50000

 -0.01909 = (-0.29445 + 0.25627)/2.0
 sum -  nocc_ = 1.00000000
 On Iteration in Bisection 2
 a: 1.00000  b:-0.50000

 -0.15677 = (-0.29445 + -0.01909)/2.0
 sum -  nocc_ = 0.00000000
 ef = -0.15677 sum = 1.00000 

 Iter: 1  T:      100.000  val:-0.156770  sumni 0.00000
 ne = 1.0000

 iter:2  failiter:2  energy:     -1.088817678340  total:     -0.824229074045  error:     -0.047961890907
 In Bisection function HOMO = -0.363  LUMO =  1.788

 0.71204 = (-0.36346 + 1.78755)/2.0
 sum -  nocc_ = 2.00000000
 On Iteration in Bisection 0
 a: 2.00000  b:-0.50000

 0.17429 = (-0.36346 + 0.71204)/2.0
 sum -  nocc_ = 1.00000000
 On Iteration in Bisection 1
 a: 1.00000  b:-0.50000

 -0.09459 = (-0.36346 + 0.17429)/2.0
 sum -  nocc_ = 0.00000000
 ef = -0.09459 sum = 1.00000 

 Iter: 2  T:      100.000  val:-0.094587  sumni 0.00000
 ne = 1.0000

 iter:3  failiter:3  energy:     -1.164465002408  total:     -0.899876398113  error:     -0.075647324068
 In Bisection function HOMO = -0.383  LUMO =  1.719

 0.66801 = (-0.38278 + 1.71881)/2.0
 sum -  nocc_ = 2.00000000
 On Iteration in Bisection 0
 a: 2.00000  b:-0.50000

 0.14262 = (-0.38278 + 0.66801)/2.0
 sum -  nocc_ = 1.00000000
 On Iteration in Bisection 1
 a: 1.00000  b:-0.50000

 -0.12008 = (-0.38278 + 0.14262)/2.0
 sum -  nocc_ = 0.00000000
 ef = -0.12008 sum = 1.00000 

 Iter: 3  T:      100.000  val:-0.120082  sumni 0.00000
 ne = 1.0000

 iter:4  failiter:4  energy:     -1.183770476042  total:     -0.919181871747  error:     -0.019305473634
 In Bisection function HOMO = -0.385  LUMO =  1.709

 0.66204 = (-0.38532 + 1.70941)/2.0
 sum -  nocc_ = 2.00000000
 On Iteration in Bisection 0
 a: 2.00000  b:-0.50000

 0.13836 = (-0.38532 + 0.66204)/2.0
 sum -  nocc_ = 1.00000000
 On Iteration in Bisection 1
 a: 1.00000  b:-0.50000

 -0.12348 = (-0.38532 + 0.13836)/2.0
 sum -  nocc_ = 0.00000000
 ef = -0.12348 sum = 1.00000 

 Iter: 4  T:      100.000  val:-0.123483  sumni 0.00000
 ne = 1.0000

 iter:5  failiter:5  energy:     -1.186162863880  total:     -0.921574259585  error:     -0.002392387838
 In Bisection function HOMO = -0.386  LUMO =  1.708

 0.66138 = (-0.38565 + 1.70840)/2.0
 sum -  nocc_ = 2.00000000
 On Iteration in Bisection 0
 a: 2.00000  b:-0.50000

 0.13787 = (-0.38565 + 0.66138)/2.0
 sum -  nocc_ = 1.00000000
 On Iteration in Bisection 1
 a: 1.00000  b:-0.50000

 -0.12389 = (-0.38565 + 0.13787)/2.0
 sum -  nocc_ = 0.00000000
 ef = -0.12389 sum = 1.00000 

 Iter: 5  T:      100.000  val:-0.123891  sumni 0.00000
 ne = 1.0000

 iter:6  failiter:6  energy:     -1.186443464421  total:     -0.921854860126  error:     -0.000280600542
 In Bisection function HOMO = -0.386  LUMO =  1.708

 0.66128 = (-0.38570 + 1.70826)/2.0
 sum -  nocc_ = 2.00000000
 On Iteration in Bisection 0
 a: 2.00000  b:-0.50000

 0.13779 = (-0.38570 + 0.66128)/2.0
 sum -  nocc_ = 1.00000000
 On Iteration in Bisection 1
 a: 1.00000  b:-0.50000

 -0.12396 = (-0.38570 + 0.13779)/2.0
 sum -  nocc_ = 0.00000000
 ef = -0.12396 sum = 1.00000 

 Iter: 6  T:      100.000  val:-0.123955  sumni 0.00000
 ne = 1.0000

 iter:7  failiter:7  energy:     -1.186487194360  total:     -0.921898590065  error:     -0.000043729939
 In Bisection function HOMO = -0.386  LUMO =  1.708

 0.66126 = (-0.38571 + 1.70824)/2.0
 sum -  nocc_ = 2.00000000
 On Iteration in Bisection 0
 a: 2.00000  b:-0.50000

 0.13778 = (-0.38571 + 0.66126)/2.0
 sum -  nocc_ = 1.00000000
 On Iteration in Bisection 1
 a: 1.00000  b:-0.50000

 -0.12397 = (-0.38571 + 0.13778)/2.0
 sum -  nocc_ = 0.00000000
 ef = -0.12397 sum = 1.00000 

 Iter: 7  T:      100.000  val:-0.123967  sumni 0.00000
 ne = 1.0000

 iter:8  failiter:8  energy:     -1.186495249221  total:     -0.921906644926  error:     -0.000008054861
 In Bisection function HOMO = -0.386  LUMO =  1.708

 0.66126 = (-0.38571 + 1.70823)/2.0
 sum -  nocc_ = 2.00000000
 On Iteration in Bisection 0
 a: 2.00000  b:-0.50000

 0.13777 = (-0.38571 + 0.66126)/2.0
 sum -  nocc_ = 1.00000000
 On Iteration in Bisection 1
 a: 1.00000  b:-0.50000

 -0.12397 = (-0.38571 + 0.13777)/2.0
 sum -  nocc_ = 0.00000000
 ef = -0.12397 sum = 1.00000 

 Iter: 8  T:      100.000  val:-0.123969  sumni 0.00000
 ne = 1.0000

 iter:9  failiter:9  energy:     -1.186496816713  total:     -0.921908212418  error:     -0.000001567491
 In Bisection function HOMO = -0.386  LUMO =  1.708

 0.66126 = (-0.38571 + 1.70823)/2.0
 sum -  nocc_ = 2.00000000
 On Iteration in Bisection 0
 a: 2.00000  b:-0.50000

 0.13777 = (-0.38571 + 0.66126)/2.0
 sum -  nocc_ = 1.00000000
 On Iteration in Bisection 1
 a: 1.00000  b:-0.50000

 -0.12397 = (-0.38571 + 0.13777)/2.0
 sum -  nocc_ = 0.00000000
 ef = -0.12397 sum = 1.00000 

 Iter: 9  T:      100.000  val:-0.123969  sumni 0.00000
 ne = 1.0000

 iter:10  failiter:10  energy:     -1.186497123318  total:     -0.921908519023  error:     -0.000000306606
 In Bisection function HOMO = -0.386  LUMO =  1.708

 0.66126 = (-0.38571 + 1.70823)/2.0
 sum -  nocc_ = 2.00000000
 On Iteration in Bisection 0
 a: 2.00000  b:-0.50000

 0.13777 = (-0.38571 + 0.66126)/2.0
 sum -  nocc_ = 1.00000000
 On Iteration in Bisection 1
 a: 1.00000  b:-0.50000

 -0.12397 = (-0.38571 + 0.13777)/2.0
 sum -  nocc_ = 0.00000000
 ef = -0.12397 sum = 1.00000 

 Iter: 10  T:      100.000  val:-0.123970  sumni 0.00000
 ne = 1.0000

 iter:11  failiter:11  energy:     -1.186497182962  total:     -0.921908578667  error:     -0.000000059644
 In Bisection function HOMO = -0.386  LUMO =  1.708

 0.66126 = (-0.38571 + 1.70823)/2.0
 sum -  nocc_ = 2.00000000
 On Iteration in Bisection 0
 a: 2.00000  b:-0.50000

 0.13777 = (-0.38571 + 0.66126)/2.0
 sum -  nocc_ = 1.00000000
 On Iteration in Bisection 1
 a: 1.00000  b:-0.50000

 -0.12397 = (-0.38571 + 0.13777)/2.0
 sum -  nocc_ = 0.00000000
 ef = -0.12397 sum = 1.00000 

 Iter: 11  T:      100.000  val:-0.123970  sumni 0.00000
 ne = 1.0000

 iter:12  failiter:12  energy:     -1.186497194484  total:     -0.921908590189  error:     -0.000000011521
 In Bisection function HOMO = -0.386  LUMO =  1.708

 0.66126 = (-0.38571 + 1.70823)/2.0
 sum -  nocc_ = 2.00000000
 On Iteration in Bisection 0
 a: 2.00000  b:-0.50000

 0.13777 = (-0.38571 + 0.66126)/2.0
 sum -  nocc_ = 1.00000000
 On Iteration in Bisection 1
 a: 1.00000  b:-0.50000

 -0.12397 = (-0.38571 + 0.13777)/2.0
 sum -  nocc_ = 0.00000000
 ef = -0.12397 sum = 1.00000 

 Iter: 12  T:      100.000  val:-0.123970  sumni 0.00000
 ne = 1.0000

 iter:13  failiter:13  energy:     -1.186497196697  total:     -0.921908592402  error:     -0.000000002213
 In Bisection function HOMO = -0.386  LUMO =  1.708

 0.66126 = (-0.38571 + 1.70823)/2.0
 sum -  nocc_ = 2.00000000
 On Iteration in Bisection 0
 a: 2.00000  b:-0.50000

 0.13777 = (-0.38571 + 0.66126)/2.0
 sum -  nocc_ = 1.00000000
 On Iteration in Bisection 1
 a: 1.00000  b:-0.50000

 -0.12397 = (-0.38571 + 0.13777)/2.0
 sum -  nocc_ = 0.00000000
 ef = -0.12397 sum = 1.00000 

 Iter: 13  T:      100.000  val:-0.123970  sumni 0.00000
 ne = 1.0000

 iter:14  failiter:14  energy:     -1.186497197120  total:     -0.921908592825  error:     -0.000000000423
 In Bisection function HOMO = -0.386  LUMO =  1.708

 0.66126 = (-0.38571 + 1.70823)/2.0
 sum -  nocc_ = 2.00000000
 On Iteration in Bisection 0
 a: 2.00000  b:-0.50000

 0.13777 = (-0.38571 + 0.66126)/2.0
 sum -  nocc_ = 1.00000000
 On Iteration in Bisection 1
 a: 1.00000  b:-0.50000

 -0.12397 = (-0.38571 + 0.13777)/2.0
 sum -  nocc_ = 0.00000000
 ef = -0.12397 sum = 1.00000 

 Iter: 14  T:      100.000  val:-0.123970  sumni 0.00000
 ne = 1.0000

 iter:15  failiter:15  energy:     -1.186497197201  total:     -0.921908592906  error:     -0.000000000081
 In Bisection function HOMO = -0.386  LUMO =  1.708

 0.66126 = (-0.38571 + 1.70823)/2.0
 sum -  nocc_ = 2.00000000
 On Iteration in Bisection 0
 a: 2.00000  b:-0.50000

 0.13777 = (-0.38571 + 0.66126)/2.0
 sum -  nocc_ = 1.00000000
 On Iteration in Bisection 1
 a: 1.00000  b:-0.50000

 -0.12397 = (-0.38571 + 0.13777)/2.0
 sum -  nocc_ = 0.00000000
 ef = -0.12397 sum = 1.00000 

 Iter: 15  T:      100.000  val:-0.123970  sumni 0.00000
 ne = 1.0000

 iter:16  failiter:16  energy:     -1.186497197216  total:     -0.921908592921  error:     -0.000000000015
 In Bisection function HOMO = -0.386  LUMO =  1.708

 0.66126 = (-0.38571 + 1.70823)/2.0
 sum -  nocc_ = 2.00000000
 On Iteration in Bisection 0
 a: 2.00000  b:-0.50000

 0.13777 = (-0.38571 + 0.66126)/2.0
 sum -  nocc_ = 1.00000000
 On Iteration in Bisection 1
 a: 1.00000  b:-0.50000

 -0.12397 = (-0.38571 + 0.13777)/2.0
 sum -  nocc_ = 0.00000000
 ef = -0.12397 sum = 1.00000 

 Iter: 16  T:      100.000  val:-0.123970  sumni 0.00000
 ne = 1.0000

 iter:17  failiter:17  energy:     -1.186497197219  total:     -0.921908592924  error:     -0.000000000003
 In Bisection function HOMO = -0.386  LUMO =  1.708

 0.66126 = (-0.38571 + 1.70823)/2.0
 sum -  nocc_ = 2.00000000
 On Iteration in Bisection 0
 a: 2.00000  b:-0.50000

 0.13777 = (-0.38571 + 0.66126)/2.0
 sum -  nocc_ = 1.00000000
 On Iteration in Bisection 1
 a: 1.00000  b:-0.50000

 -0.12397 = (-0.38571 + 0.13777)/2.0
 sum -  nocc_ = 0.00000000
 ef = -0.12397 sum = 1.00000 

 Iter: 17  T:      100.000  val:-0.123970  sumni 0.00000
 ne = 1.0000

 iter:18  failiter:18  energy:     -1.186497197220  total:     -0.921908592925  error:     -0.000000000001
 FTHFEnergy =    -0.921909
 FD_dis[0] = 1.00000000 with -0.385713 eig value
 FD_dis[1] = 0.00000000 with -0.035850 eig value
 FD_dis[2] = 0.00000000 with 0.653204 eig value
 FD_dis[3] = 0.00000000 with 0.670205 eig value
 FD_dis[4] = 0.00000000 with 1.342132 eig value
 FD_dis[5] = 0.00000000 with 1.453316 eig value
 FD_dis[6] = 0.00000000 with 1.453316 eig value
 FD_dis[7] = 0.00000000 with 1.501581 eig value
 FD_dis[8] = 0.00000000 with 1.501581 eig value
 FD_dis[9] = 0.00000000 with 1.708234 eig value
*** PSI4 exiting successfully. Buy a developer a beer!
