    -----------------------------------------------------------------------
          PSI4: An Open-Source Ab Initio Electronic Structure Package
                              PSI 4.0 Driver

               Git: Rev {master} 556e8139d3cfa1f96ccffe2cdf22cc56a185d2b2

    J. M. Turney, A. C. Simmonett, R. M. Parrish, E. G. Hohenstein,
    F. A. Evangelista, J. T. Fermann, B. J. Mintz, L. A. Burns, J. J. Wilke,
    M. L. Abrams, N. J. Russ, M. L. Leininger, C. L. Janssen, E. T. Seidl,
    W. D. Allen, H. F. Schaefer, R. A. King, E. F. Valeev, C. D. Sherrill,
    and T. D. Crawford, WIREs Comput. Mol. Sci. 2, 556-565 (2012)
    (doi: 10.1002/wcms.93)

                         Additional Contributions by
    A. E. DePrince, M. Saitow, U. Bozkaya, A. Yu. Sokolov
    -----------------------------------------------------------------------

    Process ID:  11938
    PSI4DATADIR: /Users/kevinhannon/Programs/psi4cmake/psi4/lib
    Memory level set to 256.000 MB

  ==> Input File <==

--------------------------------------------------------------------------

# PYTHONPATH must include directory above plugin directory.
#     Define either externally or here, then import plugin.
sys.path.insert(0, '/Users/kevinhannon/Programs/Quantum_Programs/Quantum-Programs/GS/')
import scf

molecule {
0 1
H
H 1 1.30000
symmetry c1
units angstrom
}


set {
  basis cc-pvdz
  reference rhf
  scf_type  pk
}

set scf {
  DO_FTHF true
  MAX_ITER 130
  MAX_TEMP 100
  TEMP_INCREMENT 0
  bisect  true
  bisect_iter  40
}
energy('rhf')

energy('scf')


--------------------------------------------------------------------------

*** tstart() called on Kevins-MacBook-Pro.local
*** at Fri Apr 10 18:02:07 2015

/Users/kevinhannon/Programs/Quantum_Programs/Quantum-Programs/GS/scf/scf.so loaded.

*** tstart() called on Kevins-MacBook-Pro.local
*** at Fri Apr 10 18:02:07 2015


         ---------------------------------------------------------
                                   SCF
            by Justin Turney, Rob Parrish, and Andy Simmonett
                              RHF Reference
                        1 Threads,    256 MiB Core
         ---------------------------------------------------------

  ==> Geometry <==

    Molecular point group: c1
    Full point group: D_inf_h

    Geometry (in Angstrom), charge = 0, multiplicity = 1:

       Center              X                  Y                   Z       
    ------------   -----------------  -----------------  -----------------
           H          0.000000000000     0.000000000000    -0.650000000000
           H          0.000000000000     0.000000000000     0.650000000000

  Running in c1 symmetry.

  Rotational constants: A = ************  B =     19.79496  C =     19.79496 [cm^-1]
  Rotational constants: A = ************  B = 593437.99140  C = 593437.99140 [MHz]
  Nuclear repulsion =    0.407059391223077

  Charge       = 0
  Multiplicity = 1
  Electrons    = 2
  Nalpha       = 1
  Nbeta        = 1

  ==> Algorithm <==

  SCF Algorithm Type is PK.
  DIIS enabled.
  MOM disabled.
  Fractional occupation disabled.
  Guess Type is CORE.
  Energy threshold   = 1.00e-06
  Density threshold  = 1.00e-06
  Integral threshold = 0.00e+00

  ==> Primary Basis <==

  Basis Set: CC-PVDZ
    Number of shells: 6
    Number of basis function: 10
    Number of Cartesian functions: 10
    Spherical Harmonics?: true
    Max angular momentum: 1

  ==> Pre-Iterations <==

   -------------------------------------------------------
    Irrep   Nso     Nmo     Nalpha   Nbeta   Ndocc  Nsocc
   -------------------------------------------------------
     A         10      10       0       0       0       0
   -------------------------------------------------------
    Total      10      10       1       1       1       0
   -------------------------------------------------------

  Starting with a DF guess...

 OEINTS: Overlap, kinetic, potential, dipole, and quadrupole integrals
         stored in file 35.

  ==> Integral Setup <==

  ==> DFJK: Density-Fitted J/K Matrices <==

    J tasked:                  Yes
    K tasked:                  Yes
    wK tasked:                  No
    OpenMP threads:              1
    Integrals threads:           1
    Memory (MB):               183
    Algorithm:                Core
    Integral Cache:           NONE
    Schwarz Cutoff:          1E-12
    Fitting Condition:       1E-12

   => Auxiliary Basis Set <=

  Basis Set: 
    Number of shells: 18
    Number of basis function: 46
    Number of Cartesian functions: 50
    Spherical Harmonics?: true
    Max angular momentum: 2

  Minimum eigenvalue in the overlap matrix is 1.5162619203E-01.
  Using Symmetric Orthogonalization.
  SCF Guess: Core (One-Electron) Hamiltonian.

  ==> Iterations <==

                           Total Energy        Delta E     RMS |[F,P]|

   @DF-RHF iter   1:    -1.00104870233776   -1.00105e+00   1.90124e-02 
   @DF-RHF iter   2:    -1.03972424505430   -3.86755e-02   3.30166e-03 DIIS
   @DF-RHF iter   3:    -1.04094139821550   -1.21715e-03   1.29684e-04 DIIS
   @DF-RHF iter   4:    -1.04094262451516   -1.22630e-06   4.17101e-06 DIIS
   @DF-RHF iter   5:    -1.04094262648419   -1.96903e-09   2.32386e-09 DIIS

  DF guess converged.

  ==> Integral Setup <==

 MINTS: Wrapper to libmints.
   by Justin Turney

   Calculation information:
      Number of atoms:                   2
      Number of AO shells:               6
      Number of SO shells:               6
      Number of primitives:             10
      Number of atomic orbitals:        10
      Number of basis functions:        10

      Number of irreps:                  1
      Integral cutoff                 0.00e+00
      Number of functions per irrep: [  10 ]

 OEINTS: Overlap, kinetic, potential, dipole, and quadrupole integrals
         stored in file 35.

      Computing two-electron integrals...done
      Computed 512 non-zero two-electron integrals.
        Stored in file 33.

	Batch   1 pq = [       0,      55] index = [             0,1540]
  ==> DiskJK: Disk-Based J/K Matrices <==

    J tasked:                  Yes
    K tasked:                  Yes
    wK tasked:                  No
    Memory (MB):               183
    Schwarz Cutoff:          1E-12

   @RHF iter   6:    -1.04093873720583    3.88928e-06   1.60249e-06 DIIS
   @RHF iter   7:    -1.04093873736642   -1.60588e-10   2.53594e-07 DIIS

  ==> Post-Iterations <==

    Orbital Energies (a.u.)
    -----------------------

    Doubly Occupied:                                                      

       1A     -0.468320  

    Virtual:                                                              

       2A      0.079293     3A      0.604048     4A      0.706587  
       5A      1.336739     6A      1.336739     7A      1.387453  
       8A      1.702656     9A      1.702656    10A      2.346676  

    Final Occupation by Irrep:
              A 
    DOCC [     1 ]

  Energy converged.

  @RHF Final Energy:    -1.04093873736642

   => Energetics <=

    Nuclear Repulsion Energy =              0.4070593912230769
    One-Electron Energy =                  -1.9593559529049918
    Two-Electron Energy =                   0.5113578243154963
    DFT Exchange-Correlation Energy =       0.0000000000000000
    Empirical Dispersion Energy =           0.0000000000000000
    PCM Polarization Energy =               0.0000000000000000
    EFP Energy =                            0.0000000000000000
    Total Energy =                         -1.0409387373664187

    Alert: EFP and PCM quantities not currently incorporated into SCF psivars.

Properties will be evaluated at   0.000000,   0.000000,   0.000000 Bohr
  ==> Properties <==


Properties computed using the SCF density matrix

  Nuclear Dipole Moment: (a.u.)
     X:     0.0000      Y:     0.0000      Z:     0.0000

  Electronic Dipole Moment: (a.u.)
     X:     0.0000      Y:    -0.0000      Z:    -0.0000

  Dipole Moment: (a.u.)
     X:     0.0000      Y:    -0.0000      Z:    -0.0000     Total:     0.0000

  Dipole Moment: (Debye)
     X:     0.0000      Y:    -0.0000      Z:    -0.0000     Total:     0.0000


  Saving occupied orbitals to File 180.

*** tstop() called on Kevins-MacBook-Pro.local at Fri Apr 10 18:02:07 2015
Module time:
	user time   =       0.19 seconds =       0.00 minutes
	system time =       0.01 seconds =       0.00 minutes
	total time  =          0 seconds =       0.00 minutes
Total time:
	user time   =       0.21 seconds =       0.00 minutes
	system time =       0.01 seconds =       0.00 minutes
	total time  =          0 seconds =       0.00 minutes

*** tstart() called on Kevins-MacBook-Pro.local
*** at Fri Apr 10 18:02:07 2015


         ---------------------------------------------------------
                                   SCF
            by Justin Turney, Rob Parrish, and Andy Simmonett
                              RHF Reference
                        1 Threads,    256 MiB Core
         ---------------------------------------------------------

  ==> Geometry <==

    Molecular point group: c1
    Full point group: D_inf_h

    Geometry (in Angstrom), charge = 0, multiplicity = 1:

       Center              X                  Y                   Z       
    ------------   -----------------  -----------------  -----------------
           H          0.000000000000     0.000000000000    -0.650000000000
           H          0.000000000000     0.000000000000     0.650000000000

  Running in c1 symmetry.

  Rotational constants: A = ************  B =     19.79496  C =     19.79496 [cm^-1]
  Rotational constants: A = ************  B = 593437.99140  C = 593437.99140 [MHz]
  Nuclear repulsion =    0.407059391223077

  Charge       = 0
  Multiplicity = 1
  Electrons    = 2
  Nalpha       = 1
  Nbeta        = 1

  ==> Algorithm <==

  SCF Algorithm Type is PK.
  DIIS enabled.
  MOM disabled.
  Fractional occupation disabled.
  Guess Type is CORE.
  Energy threshold   = 1.00e-08
  Density threshold  = 1.00e-08
  Integral threshold = 0.00e+00

  ==> Primary Basis <==

  Basis Set: CC-PVDZ
    Number of shells: 6
    Number of basis function: 10
    Number of Cartesian functions: 10
    Spherical Harmonics?: true
    Max angular momentum: 1

  ==> Pre-Iterations <==

   -------------------------------------------------------
    Irrep   Nso     Nmo     Nalpha   Nbeta   Ndocc  Nsocc
   -------------------------------------------------------
     A         10      10       0       0       0       0
   -------------------------------------------------------
    Total      10      10       1       1       1       0
   -------------------------------------------------------

  Starting with a DF guess...

 OEINTS: Overlap, kinetic, potential, dipole, and quadrupole integrals
         stored in file 35.

  ==> Integral Setup <==

  ==> DFJK: Density-Fitted J/K Matrices <==

    J tasked:                  Yes
    K tasked:                  Yes
    wK tasked:                  No
    OpenMP threads:              1
    Integrals threads:           1
    Memory (MB):               183
    Algorithm:                Core
    Integral Cache:           NONE
    Schwarz Cutoff:          1E-12
    Fitting Condition:       1E-12

   => Auxiliary Basis Set <=

  Basis Set: 
    Number of shells: 18
    Number of basis function: 46
    Number of Cartesian functions: 50
    Spherical Harmonics?: true
    Max angular momentum: 2

  Minimum eigenvalue in the overlap matrix is 1.5162619203E-01.
  Using Symmetric Orthogonalization.
  SCF Guess: Core (One-Electron) Hamiltonian.

  ==> Iterations <==

                           Total Energy        Delta E     RMS |[F,P]|

   @DF-RHF iter   1:    -1.00104870233776   -1.00105e+00   1.90124e-02 
   @DF-RHF iter   2:    -1.03972424505430   -3.86755e-02   3.30166e-03 DIIS
   @DF-RHF iter   3:    -1.04094139821550   -1.21715e-03   1.29684e-04 DIIS
   @DF-RHF iter   4:    -1.04094262451516   -1.22630e-06   4.17101e-06 DIIS
   @DF-RHF iter   5:    -1.04094262648419   -1.96903e-09   2.32386e-09 DIIS

  DF guess converged.

  ==> Integral Setup <==

 MINTS: Wrapper to libmints.
   by Justin Turney

   Calculation information:
      Number of atoms:                   2
      Number of AO shells:               6
      Number of SO shells:               6
      Number of primitives:             10
      Number of atomic orbitals:        10
      Number of basis functions:        10

      Number of irreps:                  1
      Integral cutoff                 0.00e+00
      Number of functions per irrep: [  10 ]

 OEINTS: Overlap, kinetic, potential, dipole, and quadrupole integrals
         stored in file 35.

      Computing two-electron integrals...done
      Computed 512 non-zero two-electron integrals.
        Stored in file 33.

	Batch   1 pq = [       0,      55] index = [             0,1540]
  ==> DiskJK: Disk-Based J/K Matrices <==

    J tasked:                  Yes
    K tasked:                  Yes
    wK tasked:                  No
    Memory (MB):               183
    Schwarz Cutoff:          1E-12

   @RHF iter   6:    -1.04093873720583    3.88928e-06   1.60249e-06 DIIS
   @RHF iter   7:    -1.04093873736642   -1.60588e-10   2.53594e-07 DIIS
   @RHF iter   8:    -1.04093873737056   -4.13758e-12   5.36340e-09 DIIS

  ==> Post-Iterations <==

    Orbital Energies (a.u.)
    -----------------------

    Doubly Occupied:                                                      

       1A     -0.468320  

    Virtual:                                                              

       2A      0.079293     3A      0.604048     4A      0.706588  
       5A      1.336739     6A      1.336739     7A      1.387453  
       8A      1.702656     9A      1.702656    10A      2.346676  

    Final Occupation by Irrep:
              A 
    DOCC [     1 ]

  Energy converged.

  @RHF Final Energy:    -1.04093873737056

   => Energetics <=

    Nuclear Repulsion Energy =              0.4070593912230769
    One-Electron Energy =                  -1.9593558210020761
    Two-Electron Energy =                   0.5113576924084428
    DFT Exchange-Correlation Energy =       0.0000000000000000
    Empirical Dispersion Energy =           0.0000000000000000
    PCM Polarization Energy =               0.0000000000000000
    EFP Energy =                            0.0000000000000000
    Total Energy =                         -1.0409387373705563

    Alert: EFP and PCM quantities not currently incorporated into SCF psivars.

Properties will be evaluated at   0.000000,   0.000000,   0.000000 Bohr
  ==> Properties <==


Properties computed using the SCF density matrix

  Nuclear Dipole Moment: (a.u.)
     X:     0.0000      Y:     0.0000      Z:     0.0000

  Electronic Dipole Moment: (a.u.)
     X:     0.0000      Y:    -0.0000      Z:    -0.0000

  Dipole Moment: (a.u.)
     X:     0.0000      Y:    -0.0000      Z:    -0.0000     Total:     0.0000

  Dipole Moment: (Debye)
     X:     0.0000      Y:    -0.0000      Z:    -0.0000     Total:     0.0000


  Saving occupied orbitals to File 180.

*** tstop() called on Kevins-MacBook-Pro.local at Fri Apr 10 18:02:07 2015
Module time:
	user time   =       0.19 seconds =       0.00 minutes
	system time =       0.01 seconds =       0.00 minutes
	total time  =          0 seconds =       0.00 minutes
Total time:
	user time   =       0.41 seconds =       0.01 minutes
	system time =       0.02 seconds =       0.00 minutes
	total time  =          0 seconds =       0.00 minutes
Reading options from the SCF block
Calling plugin scf.so.
    Molecular point group: c1
    Full point group: D_inf_h

    Geometry (in Angstrom), charge = 0, multiplicity = 1:

       Center              X                  Y                   Z       
    ------------   -----------------  -----------------  -----------------
           H          0.000000000000     0.000000000000    -0.650000000000
           H          0.000000000000     0.000000000000     0.650000000000


    Nuclear repulsion energy:       0.40705939

  ## Overlap (Symmetry 0) ##
  Irrep: 1 Size: 10 x 10

                 1                   2                   3                   4                   5

    1     1.00000000000000     0.68486025149275     0.00000000000000     0.00000000000000     0.00000000000000
    2     0.68486025149275     1.00000000000000     0.00000000000000     0.00000000000000     0.00000000000000
    3     0.00000000000000     0.00000000000000     1.00000000000000     0.00000000000000     0.00000000000000
    4     0.00000000000000     0.00000000000000     0.00000000000000     1.00000000000000     0.00000000000000
    5     0.00000000000000     0.00000000000000     0.00000000000000     0.00000000000000     1.00000000000000
    6     0.20341962679596     0.37947340144250     0.25907519226188     0.00000000000000     0.00000000000000
    7     0.37947340144250     0.69201954735528     0.18831370121612     0.00000000000000     0.00000000000000
    8    -0.25907519226188    -0.18831370121612    -0.37769760870770     0.00000000000000     0.00000000000000
    9     0.00000000000000     0.00000000000000     0.00000000000000     0.11149687584309     0.00000000000000
   10     0.00000000000000     0.00000000000000     0.00000000000000     0.00000000000000     0.11149687584309

                 6                   7                   8                   9                  10

    1     0.20341962679596     0.37947340144250    -0.25907519226188     0.00000000000000     0.00000000000000
    2     0.37947340144250     0.69201954735528    -0.18831370121612     0.00000000000000     0.00000000000000
    3     0.25907519226188     0.18831370121612    -0.37769760870770     0.00000000000000     0.00000000000000
    4     0.00000000000000     0.00000000000000     0.00000000000000     0.11149687584309     0.00000000000000
    5     0.00000000000000     0.00000000000000     0.00000000000000     0.00000000000000     0.11149687584309
    6     1.00000000000000     0.68486025149275    -0.00000000000000     0.00000000000000     0.00000000000000
    7     0.68486025149275     1.00000000000000    -0.00000000000000     0.00000000000000     0.00000000000000
    8    -0.00000000000000    -0.00000000000000     1.00000000000000     0.00000000000000     0.00000000000000
    9     0.00000000000000     0.00000000000000     0.00000000000000     1.00000000000000     0.00000000000000
   10     0.00000000000000     0.00000000000000     0.00000000000000     0.00000000000000     1.00000000000000



  ## Kinetic (Symmetry 0) ##
  Irrep: 1 Size: 10 x 10

                 1                   2                   3                   4                   5

    1     0.96945722711242     0.20123413106538    -0.00000000000000     0.00000000000000     0.00000000000000
    2     0.20123413106538     0.18300000000000     0.00000000000000     0.00000000000000     0.00000000000000
    3    -0.00000000000000     0.00000000000000     1.81750000000000     0.00000000000000     0.00000000000000
    4     0.00000000000000     0.00000000000000     0.00000000000000     1.81750000000000     0.00000000000000
    5     0.00000000000000     0.00000000000000     0.00000000000000     0.00000000000000     1.81750000000000
    6    -0.00453280259985     0.06735025723236     0.08818486937779     0.00000000000000     0.00000000000000
    7     0.06735025723236     0.09555875701946     0.07355779293765     0.00000000000000     0.00000000000000
    8    -0.08818486937779    -0.07355779293765    -0.43973401119056     0.00000000000000     0.00000000000000
    9     0.00000000000000     0.00000000000000     0.00000000000000     0.02482337671061     0.00000000000000
   10     0.00000000000000     0.00000000000000     0.00000000000000     0.00000000000000     0.02482337671061

                 6                   7                   8                   9                  10

    1    -0.00453280259985     0.06735025723236    -0.08818486937779     0.00000000000000     0.00000000000000
    2     0.06735025723236     0.09555875701946    -0.07355779293765     0.00000000000000     0.00000000000000
    3     0.08818486937779     0.07355779293765    -0.43973401119056     0.00000000000000     0.00000000000000
    4     0.00000000000000     0.00000000000000     0.00000000000000     0.02482337671061     0.00000000000000
    5     0.00000000000000     0.00000000000000     0.00000000000000     0.00000000000000     0.02482337671061
    6     0.96945722711242     0.20123413106538     0.00000000000000     0.00000000000000     0.00000000000000
    7     0.20123413106538     0.18300000000000    -0.00000000000000     0.00000000000000     0.00000000000000
    8     0.00000000000000    -0.00000000000000     1.81750000000000     0.00000000000000     0.00000000000000
    9     0.00000000000000     0.00000000000000     0.00000000000000     1.81750000000000     0.00000000000000
   10     0.00000000000000     0.00000000000000     0.00000000000000     0.00000000000000     1.81750000000000



  ## Potential (Symmetry 0) ##
  Irrep: 1 Size: 10 x 10

                 1                   2                   3                   4                   5

    1    -1.78463750847024    -0.92628404228858    -0.10398925965649     0.00000000000000     0.00000000000000
    2    -0.92628404228858    -0.92937477262314    -0.09616579991208     0.00000000000000     0.00000000000000
    3    -0.10398925965649    -0.09616579991208    -1.36028167509977     0.00000000000000     0.00000000000000
    4     0.00000000000000     0.00000000000000     0.00000000000000    -1.29094731611877     0.00000000000000
    5     0.00000000000000     0.00000000000000     0.00000000000000     0.00000000000000    -1.29094731611877
    6    -0.31595038023557    -0.52704580253791    -0.39960940243260     0.00000000000000     0.00000000000000
    7    -0.52704580253791    -0.68636828939285    -0.28372848253805     0.00000000000000     0.00000000000000
    8     0.39960940243260     0.28372848253805     0.56220869061734     0.00000000000000     0.00000000000000
    9     0.00000000000000     0.00000000000000     0.00000000000000    -0.14280206312534     0.00000000000000
   10     0.00000000000000     0.00000000000000     0.00000000000000     0.00000000000000    -0.14280206312534

                 6                   7                   8                   9                  10

    1    -0.31595038023557    -0.52704580253791     0.39960940243260     0.00000000000000     0.00000000000000
    2    -0.52704580253791    -0.68636828939285     0.28372848253805     0.00000000000000     0.00000000000000
    3    -0.39960940243260    -0.28372848253805     0.56220869061734     0.00000000000000     0.00000000000000
    4     0.00000000000000     0.00000000000000     0.00000000000000    -0.14280206312534     0.00000000000000
    5     0.00000000000000     0.00000000000000     0.00000000000000     0.00000000000000    -0.14280206312534
    6    -1.78463750847024    -0.92628404228858     0.10398925965649     0.00000000000000     0.00000000000000
    7    -0.92628404228858    -0.92937477262314     0.09616579991208     0.00000000000000     0.00000000000000
    8     0.10398925965649     0.09616579991208    -1.36028167509977     0.00000000000000     0.00000000000000
    9     0.00000000000000     0.00000000000000     0.00000000000000    -1.29094731611877     0.00000000000000
   10     0.00000000000000     0.00000000000000     0.00000000000000     0.00000000000000    -1.29094731611877



  ## One Electron Ints (Symmetry 0) ##
  Irrep: 1 Size: 10 x 10

                 1                   2                   3                   4                   5

    1    -0.81518028135781    -0.72504991122320    -0.10398925965649     0.00000000000000     0.00000000000000
    2    -0.72504991122320    -0.74637477262314    -0.09616579991208     0.00000000000000     0.00000000000000
    3    -0.10398925965649    -0.09616579991208     0.45721832490023     0.00000000000000     0.00000000000000
    4     0.00000000000000     0.00000000000000     0.00000000000000     0.52655268388123     0.00000000000000
    5     0.00000000000000     0.00000000000000     0.00000000000000     0.00000000000000     0.52655268388123
    6    -0.32048318283542    -0.45969554530555    -0.31142453305481     0.00000000000000     0.00000000000000
    7    -0.45969554530555    -0.59080953237339    -0.21017068960040     0.00000000000000     0.00000000000000
    8     0.31142453305481     0.21017068960040     0.12247467942679     0.00000000000000     0.00000000000000
    9     0.00000000000000     0.00000000000000     0.00000000000000    -0.11797868641473     0.00000000000000
   10     0.00000000000000     0.00000000000000     0.00000000000000     0.00000000000000    -0.11797868641473

                 6                   7                   8                   9                  10

    1    -0.32048318283542    -0.45969554530555     0.31142453305481     0.00000000000000     0.00000000000000
    2    -0.45969554530555    -0.59080953237339     0.21017068960040     0.00000000000000     0.00000000000000
    3    -0.31142453305481    -0.21017068960040     0.12247467942679     0.00000000000000     0.00000000000000
    4     0.00000000000000     0.00000000000000     0.00000000000000    -0.11797868641473     0.00000000000000
    5     0.00000000000000     0.00000000000000     0.00000000000000     0.00000000000000    -0.11797868641473
    6    -0.81518028135781    -0.72504991122320     0.10398925965649     0.00000000000000     0.00000000000000
    7    -0.72504991122320    -0.74637477262314     0.09616579991208     0.00000000000000     0.00000000000000
    8     0.10398925965649     0.09616579991208     0.45721832490023     0.00000000000000     0.00000000000000
    9     0.00000000000000     0.00000000000000     0.00000000000000     0.52655268388123     0.00000000000000
   10     0.00000000000000     0.00000000000000     0.00000000000000     0.00000000000000     0.52655268388123




	There are 0 unique integrals

  ## Fock (Symmetry 0) ##
  Irrep: 1 Size: 10 x 10

                 1                   2                   3                   4                   5

    1    -0.52680411228702    -0.32996806026292     0.00249363997333    -0.00000000000000     0.00000000000000
    2    -0.32996806026292    -0.33184140752820     0.15333096845955     0.00000000000000     0.00000000000000
    3     0.00249363997333     0.15333096845955     0.77412445307692    -0.00000000000000     0.00000000000000
    4    -0.00000000000000     0.00000000000000    -0.00000000000000     0.54650079257640     0.00000000000000
    5     0.00000000000000     0.00000000000000     0.00000000000000     0.00000000000000     0.54650079257640
    6    -0.06796844894918    -0.08981681263082    -0.27704536470110    -0.00000000000000     0.00000000000000
    7    -0.08981681263083    -0.14198769105376    -0.18168467026769     0.00000000000000     0.00000000000000
    8     0.27704536470110     0.18168467026769     0.46498176356498    -0.00000000000000     0.00000000000000
    9    -0.00000000000000     0.00000000000000    -0.00000000000000    -0.17891181743277     0.00000000000000
   10     0.00000000000000     0.00000000000000     0.00000000000000     0.00000000000000    -0.17891181743277

                 6                   7                   8                   9                  10

    1    -0.06796844894918    -0.08981681263082     0.27704536470110    -0.00000000000000     0.00000000000000
    2    -0.08981681263082    -0.14198769105376     0.18168467026769     0.00000000000000     0.00000000000000
    3    -0.27704536470110    -0.18168467026769     0.46498176356498    -0.00000000000000     0.00000000000000
    4    -0.00000000000000     0.00000000000000    -0.00000000000000    -0.17891181743277     0.00000000000000
    5     0.00000000000000     0.00000000000000     0.00000000000000     0.00000000000000    -0.17891181743277
    6    -0.52680411228702    -0.32996806026292    -0.00249363997333     0.00000000000000     0.00000000000000
    7    -0.32996806026292    -0.33184140752820    -0.15333096845955    -0.00000000000000     0.00000000000000
    8    -0.00249363997333    -0.15333096845955     0.77412445307692     0.00000000000000     0.00000000000000
    9     0.00000000000000    -0.00000000000000     0.00000000000000     0.54650079257640     0.00000000000000
   10     0.00000000000000     0.00000000000000     0.00000000000000     0.00000000000000     0.54650079257640



  ## C (Symmetry 0) ##
  Irrep: 1 Size: 10 x 10

                 1                   2                   3                   4                   5

    1    -0.39383052849172    -0.39550166643050    -0.22664779915681     0.04741118305252     0.09147546968180
    2    -0.49011677337917    -0.53372413204538    -0.08206028364516     0.03359499027295     0.08918553058331
    3     0.38163240449241    -0.69457328457847     0.14906519788077     0.14747209737958     0.21573413417684
    4    -0.39943560432552     0.58395623298537    -0.06451287376356     0.03670519077274    -0.01520378782756
    5    -0.00497863756688    -0.00767661532790    -0.03866146581615     0.36799604514452    -0.60769606357503
    6     0.07047131068758     0.03268335283057    -0.36854311957732    -0.80003514953452    -0.50142509965777
    7    -0.06112015412759     0.45605993419730     0.98933058373271     0.27723571767948     0.10077878928394
    8    -0.01725509087015    -0.26270087489425    -0.03402625127746     0.32504314418421     0.74682219116639
    9     0.02233755071394    -0.03265645783144     0.00360773945485    -0.65635486387692     0.27187108634737
   10     0.08902699900768     0.13727169652306     0.69133658206980    -0.02057936306110     0.03398405523136

                 6                   7                   8                   9                  10

    1    -0.99460246765168    -0.78925522195957     0.07109962739806    -0.02199421662176    -0.07608398751377
    2     1.44158590647821     0.73233832666802     0.58220484874158    -0.04252986513259    -0.09459612777044
    3     0.54013243570760    -0.59069035201389    -0.10802734562405     0.00766535669680    -0.12178919529071
    4     0.39943560432552    -0.58395623298537    -0.06451287376356    -0.03670519077274     0.01520378782756
    5     0.00497863756688     0.00767661532790    -0.03866146581615     0.36799604514453    -0.60769606357502
    6     0.07900962673975     0.03827947356230     0.37075380780232    -0.78128494405615    -0.45615809929460
    7    -0.79599528731527    -0.02558655709380    -1.17959992886581     0.35143884329763     0.27992098152177
    8     0.14534981097886    -0.15612755800627     0.07612691136652    -0.28313200823550    -0.72144251010361
    9    -0.02233755071394     0.03265645783144     0.00360773945485     0.65635486387692    -0.27187108634737
   10    -0.08902699900768    -0.13727169652306     0.69133658206980    -0.02057936306110     0.03398405523136




 In Bisection function HOMO = -0.998  LUMO =  1.342

 0.17163 = (-0.99837 + 1.34162)/2.0
 sum -  nocc_ = 3.00000000
 On Iteration in Bisection 0
 a: 3.00000  b:-0.50000

 -0.41337 = (-0.99837 + 0.17163)/2.0
 sum -  nocc_ = 1.00000000
 On Iteration in Bisection 1
 a: 1.00000  b:-0.50000

 -0.70587 = (-0.99837 + -0.41337)/2.0
 sum -  nocc_ = 0.00000000
 ef = -0.70587 sum = 1.00000 

 Iter: 0  T:      100.000  val:-0.705873  sumni 0.00000
 ne = 1.0000

Nuc Replusion =       0.407059391223
 1st iteration =      -0.740788956270
 In Bisection function HOMO = -0.319  LUMO =  2.324

 1.00255 = (-0.31911 + 2.32422)/2.0
 sum -  nocc_ = 3.00000000
 On Iteration in Bisection 0
 a: 3.00000  b:-0.50000

 0.34172 = (-0.31911 + 1.00255)/2.0
 sum -  nocc_ = 1.00000000
 On Iteration in Bisection 1
 a: 1.00000  b:-0.50000

 0.01130 = (-0.31911 + 0.34172)/2.0
 sum -  nocc_ = 0.99999998
 On Iteration in Bisection 2
 a: 1.00000  b:-0.50000

 -0.15391 = (-0.31911 + 0.01130)/2.0
 sum -  nocc_ = 0.00000000
 ef = -0.15391 sum = 1.00000 

 Iter: 0  T:      100.000  val:-0.153906  sumni 0.00000
 ne = 1.0000

 iter:1  failiter:1  energy:     -1.263257848616  total:     -0.856198457393  error:     -0.222319111245
 In Bisection function HOMO = -0.455  LUMO =  2.343

 0.94399 = (-0.45536 + 2.34335)/2.0
 sum -  nocc_ = 3.00000000
 On Iteration in Bisection 0
 a: 3.00000  b:-0.50000

 0.24432 = (-0.45536 + 0.94399)/2.0
 sum -  nocc_ = 1.00000000
 On Iteration in Bisection 1
 a: 1.00000  b:-0.50000

 -0.10552 = (-0.45536 + 0.24432)/2.0
 sum -  nocc_ = 0.00000000
 ef = -0.10552 sum = 1.00000 

 Iter: 1  T:      100.000  val:-0.105523  sumni 0.00000
 ne = 1.0000

 iter:2  failiter:2  energy:     -1.432395397208  total:     -1.025336005985  error:     -0.169137548592
 In Bisection function HOMO = -0.471  LUMO =  2.343

 0.93605 = (-0.47058 + 2.34268)/2.0
 sum -  nocc_ = 3.00000000
 On Iteration in Bisection 0
 a: 3.00000  b:-0.50000

 0.23274 = (-0.47058 + 0.93605)/2.0
 sum -  nocc_ = 1.00000000
 On Iteration in Bisection 1
 a: 1.00000  b:-0.50000

 -0.11892 = (-0.47058 + 0.23274)/2.0
 sum -  nocc_ = 0.00000000
 ef = -0.11892 sum = 1.00000 

 Iter: 2  T:      100.000  val:-0.118921  sumni 0.00000
 ne = 1.0000

 iter:3  failiter:3  energy:     -1.449900252067  total:     -1.042840860844  error:     -0.017504854859
 In Bisection function HOMO = -0.469  LUMO =  2.346

 0.93872 = (-0.46866 + 2.34610)/2.0
 sum -  nocc_ = 3.00000000
 On Iteration in Bisection 0
 a: 3.00000  b:-0.50000

 0.23503 = (-0.46866 + 0.93872)/2.0
 sum -  nocc_ = 1.00000000
 On Iteration in Bisection 1
 a: 1.00000  b:-0.50000

 -0.11681 = (-0.46866 + 0.23503)/2.0
 sum -  nocc_ = 0.00000000
 ef = -0.11681 sum = 1.00000 

 Iter: 3  T:      100.000  val:-0.116814  sumni 0.00000
 ne = 1.0000

 iter:4  failiter:4  energy:     -1.448285214638  total:     -1.041225823415  error:      0.001615037429
 In Bisection function HOMO = -0.468  LUMO =  2.347

 0.93911 = (-0.46837 + 2.34659)/2.0
 sum -  nocc_ = 3.00000000
 On Iteration in Bisection 0
 a: 3.00000  b:-0.50000

 0.23537 = (-0.46837 + 0.93911)/2.0
 sum -  nocc_ = 1.00000000
 On Iteration in Bisection 1
 a: 1.00000  b:-0.50000

 -0.11650 = (-0.46837 + 0.23537)/2.0
 sum -  nocc_ = 0.00000000
 ef = -0.11650 sum = 1.00000 

 Iter: 4  T:      100.000  val:-0.116500  sumni 0.00000
 ne = 1.0000

 iter:5  failiter:5  energy:     -1.448040580791  total:     -1.040981189568  error:      0.000244633848
 In Bisection function HOMO = -0.468  LUMO =  2.347

 0.93917 = (-0.46833 + 2.34666)/2.0
 sum -  nocc_ = 3.00000000
 On Iteration in Bisection 0
 a: 3.00000  b:-0.50000

 0.23542 = (-0.46833 + 0.93917)/2.0
 sum -  nocc_ = 1.00000000
 On Iteration in Bisection 1
 a: 1.00000  b:-0.50000

 -0.11645 = (-0.46833 + 0.23542)/2.0
 sum -  nocc_ = 0.00000000
 ef = -0.11645 sum = 1.00000 

 Iter: 5  T:      100.000  val:-0.116454  sumni 0.00000
 ne = 1.0000

 iter:6  failiter:6  energy:     -1.448004420225  total:     -1.040945029002  error:      0.000036160566
 In Bisection function HOMO = -0.468  LUMO =  2.347

 0.93918 = (-0.46832 + 2.34667)/2.0
 sum -  nocc_ = 3.00000000
 On Iteration in Bisection 0
 a: 3.00000  b:-0.50000

 0.23543 = (-0.46832 + 0.93918)/2.0
 sum -  nocc_ = 1.00000000
 On Iteration in Bisection 1
 a: 1.00000  b:-0.50000

 -0.11645 = (-0.46832 + 0.23543)/2.0
 sum -  nocc_ = 0.00000000
 ef = -0.11645 sum = 1.00000 

 Iter: 6  T:      100.000  val:-0.116447  sumni 0.00000
 ne = 1.0000

 iter:7  failiter:7  energy:     -1.447999066003  total:     -1.040939674780  error:      0.000005354222
 In Bisection function HOMO = -0.468  LUMO =  2.347

 0.93918 = (-0.46832 + 2.34668)/2.0
 sum -  nocc_ = 3.00000000
 On Iteration in Bisection 0
 a: 3.00000  b:-0.50000

 0.23543 = (-0.46832 + 0.93918)/2.0
 sum -  nocc_ = 1.00000000
 On Iteration in Bisection 1
 a: 1.00000  b:-0.50000

 -0.11645 = (-0.46832 + 0.23543)/2.0
 sum -  nocc_ = 0.00000000
 ef = -0.11645 sum = 1.00000 

 Iter: 7  T:      100.000  val:-0.116446  sumni 0.00000
 ne = 1.0000

 iter:8  failiter:8  energy:     -1.447998269159  total:     -1.040938877935  error:      0.000000796844
 In Bisection function HOMO = -0.468  LUMO =  2.347

 0.93918 = (-0.46832 + 2.34668)/2.0
 sum -  nocc_ = 3.00000000
 On Iteration in Bisection 0
 a: 3.00000  b:-0.50000

 0.23543 = (-0.46832 + 0.93918)/2.0
 sum -  nocc_ = 1.00000000
 On Iteration in Bisection 1
 a: 1.00000  b:-0.50000

 -0.11645 = (-0.46832 + 0.23543)/2.0
 sum -  nocc_ = 0.00000000
 ef = -0.11645 sum = 1.00000 

 Iter: 8  T:      100.000  val:-0.116446  sumni 0.00000
 ne = 1.0000

 iter:9  failiter:9  energy:     -1.447998149834  total:     -1.040938758610  error:      0.000000119325
 In Bisection function HOMO = -0.468  LUMO =  2.347

 0.93918 = (-0.46832 + 2.34668)/2.0
 sum -  nocc_ = 3.00000000
 On Iteration in Bisection 0
 a: 3.00000  b:-0.50000

 0.23543 = (-0.46832 + 0.93918)/2.0
 sum -  nocc_ = 1.00000000
 On Iteration in Bisection 1
 a: 1.00000  b:-0.50000

 -0.11645 = (-0.46832 + 0.23543)/2.0
 sum -  nocc_ = 0.00000000
 ef = -0.11645 sum = 1.00000 

 Iter: 9  T:      100.000  val:-0.116446  sumni 0.00000
 ne = 1.0000

 iter:10  failiter:10  energy:     -1.447998131833  total:     -1.040938740610  error:      0.000000018001
 In Bisection function HOMO = -0.468  LUMO =  2.347

 0.93918 = (-0.46832 + 2.34668)/2.0
 sum -  nocc_ = 3.00000000
 On Iteration in Bisection 0
 a: 3.00000  b:-0.50000

 0.23543 = (-0.46832 + 0.93918)/2.0
 sum -  nocc_ = 1.00000000
 On Iteration in Bisection 1
 a: 1.00000  b:-0.50000

 -0.11645 = (-0.46832 + 0.23543)/2.0
 sum -  nocc_ = 0.00000000
 ef = -0.11645 sum = 1.00000 

 Iter: 10  T:      100.000  val:-0.116446  sumni 0.00000
 ne = 1.0000

 iter:11  failiter:11  energy:     -1.447998129093  total:     -1.040938737870  error:      0.000000002740
 In Bisection function HOMO = -0.468  LUMO =  2.347

 0.93918 = (-0.46832 + 2.34668)/2.0
 sum -  nocc_ = 3.00000000
 On Iteration in Bisection 0
 a: 3.00000  b:-0.50000

 0.23543 = (-0.46832 + 0.93918)/2.0
 sum -  nocc_ = 1.00000000
 On Iteration in Bisection 1
 a: 1.00000  b:-0.50000

 -0.11645 = (-0.46832 + 0.23543)/2.0
 sum -  nocc_ = 0.00000000
 ef = -0.11645 sum = 1.00000 

 Iter: 11  T:      100.000  val:-0.116446  sumni 0.00000
 ne = 1.0000

 iter:12  failiter:12  energy:     -1.447998128672  total:     -1.040938737449  error:      0.000000000422
 In Bisection function HOMO = -0.468  LUMO =  2.347

 0.93918 = (-0.46832 + 2.34668)/2.0
 sum -  nocc_ = 3.00000000
 On Iteration in Bisection 0
 a: 3.00000  b:-0.50000

 0.23543 = (-0.46832 + 0.93918)/2.0
 sum -  nocc_ = 1.00000000
 On Iteration in Bisection 1
 a: 1.00000  b:-0.50000

 -0.11645 = (-0.46832 + 0.23543)/2.0
 sum -  nocc_ = 0.00000000
 ef = -0.11645 sum = 1.00000 

 Iter: 12  T:      100.000  val:-0.116446  sumni 0.00000
 ne = 1.0000

 iter:13  failiter:13  energy:     -1.447998128606  total:     -1.040938737383  error:      0.000000000066
 In Bisection function HOMO = -0.468  LUMO =  2.347

 0.93918 = (-0.46832 + 2.34668)/2.0
 sum -  nocc_ = 3.00000000
 On Iteration in Bisection 0
 a: 3.00000  b:-0.50000

 0.23543 = (-0.46832 + 0.93918)/2.0
 sum -  nocc_ = 1.00000000
 On Iteration in Bisection 1
 a: 1.00000  b:-0.50000

 -0.11645 = (-0.46832 + 0.23543)/2.0
 sum -  nocc_ = 0.00000000
 ef = -0.11645 sum = 1.00000 

 Iter: 13  T:      100.000  val:-0.116446  sumni 0.00000
 ne = 1.0000

 iter:14  failiter:14  energy:     -1.447998128596  total:     -1.040938737373  error:      0.000000000010
 In Bisection function HOMO = -0.468  LUMO =  2.347

 0.93918 = (-0.46832 + 2.34668)/2.0
 sum -  nocc_ = 3.00000000
 On Iteration in Bisection 0
 a: 3.00000  b:-0.50000

 0.23543 = (-0.46832 + 0.93918)/2.0
 sum -  nocc_ = 1.00000000
 On Iteration in Bisection 1
 a: 1.00000  b:-0.50000

 -0.11645 = (-0.46832 + 0.23543)/2.0
 sum -  nocc_ = 0.00000000
 ef = -0.11645 sum = 1.00000 

 Iter: 14  T:      100.000  val:-0.116446  sumni 0.00000
 ne = 1.0000

 iter:15  failiter:15  energy:     -1.447998128594  total:     -1.040938737371  error:      0.000000000002
 In Bisection function HOMO = -0.468  LUMO =  2.347

 0.93918 = (-0.46832 + 2.34668)/2.0
 sum -  nocc_ = 3.00000000
 On Iteration in Bisection 0
 a: 3.00000  b:-0.50000

 0.23543 = (-0.46832 + 0.93918)/2.0
 sum -  nocc_ = 1.00000000
 On Iteration in Bisection 1
 a: 1.00000  b:-0.50000

 -0.11645 = (-0.46832 + 0.23543)/2.0
 sum -  nocc_ = 0.00000000
 ef = -0.11645 sum = 1.00000 

 Iter: 15  T:      100.000  val:-0.116446  sumni 0.00000
 ne = 1.0000

 iter:16  failiter:16  energy:     -1.447998128594  total:     -1.040938737371  error:      0.000000000000
 FTHFEnergy =    -1.040939
 FD_dis[0] = 1.00000000 with -0.468320 eig value
 FD_dis[1] = 0.00000000 with 0.079293 eig value
 FD_dis[2] = 0.00000000 with 0.604048 eig value
 FD_dis[3] = 0.00000000 with 0.706588 eig value
 FD_dis[4] = 0.00000000 with 1.336739 eig value
 FD_dis[5] = 0.00000000 with 1.336739 eig value
 FD_dis[6] = 0.00000000 with 1.387453 eig value
 FD_dis[7] = 0.00000000 with 1.702656 eig value
 FD_dis[8] = 0.00000000 with 1.702656 eig value
 FD_dis[9] = 0.00000000 with 2.346676 eig value
*** PSI4 exiting successfully. Buy a developer a beer!
