    -----------------------------------------------------------------------
          PSI4: An Open-Source Ab Initio Electronic Structure Package
                              PSI 4.0 Driver

               Git: Rev {master} 556e8139d3cfa1f96ccffe2cdf22cc56a185d2b2

    J. M. Turney, A. C. Simmonett, R. M. Parrish, E. G. Hohenstein,
    F. A. Evangelista, J. T. Fermann, B. J. Mintz, L. A. Burns, J. J. Wilke,
    M. L. Abrams, N. J. Russ, M. L. Leininger, C. L. Janssen, E. T. Seidl,
    W. D. Allen, H. F. Schaefer, R. A. King, E. F. Valeev, C. D. Sherrill,
    and T. D. Crawford, WIREs Comput. Mol. Sci. 2, 556-565 (2012)
    (doi: 10.1002/wcms.93)

                         Additional Contributions by
    A. E. DePrince, M. Saitow, U. Bozkaya, A. Yu. Sokolov
    -----------------------------------------------------------------------

    Process ID:  14567
    PSI4DATADIR: /Users/kevinhannon/Programs/psi4cmake/psi4/lib
    Memory level set to 256.000 MB

  ==> Input File <==

--------------------------------------------------------------------------

# PYTHONPATH must include directory above plugin directory.
#     Define either externally or here, then import plugin.
sys.path.insert(0, '/Users/kevinhannon/Programs/Quantum_Programs/Quantum-Programs/GS/')
import scf

molecule {
0 1
H
H 1 1.60000
symmetry c1
units angstrom
}


set {
  basis cc-pvdz
  reference rhf
  scf_type  pk
}

set scf {
  DO_FTHF true
  MAX_ITER 130
  MAX_TEMP 20000
  TEMP_INCREMENT 0
  bisect  true
  bisect_iter  40
}
energy('rhf')
energy('scf')


--------------------------------------------------------------------------

*** tstart() called on Kevins-MacBook-Pro.local
*** at Sun Apr 12 15:46:00 2015

/Users/kevinhannon/Programs/Quantum_Programs/Quantum-Programs/GS/scf/scf.so loaded.

*** tstart() called on Kevins-MacBook-Pro.local
*** at Sun Apr 12 15:46:00 2015


         ---------------------------------------------------------
                                   SCF
            by Justin Turney, Rob Parrish, and Andy Simmonett
                              RHF Reference
                        1 Threads,    256 MiB Core
         ---------------------------------------------------------

  ==> Geometry <==

    Molecular point group: c1
    Full point group: D_inf_h

    Geometry (in Angstrom), charge = 0, multiplicity = 1:

       Center              X                  Y                   Z       
    ------------   -----------------  -----------------  -----------------
           H          0.000000000000     0.000000000000    -0.800000000000
           H          0.000000000000     0.000000000000     0.800000000000

  Running in c1 symmetry.

  Rotational constants: A = ************  B =     13.06777  C =     13.06777 [cm^-1]
  Rotational constants: A = ************  B = 391761.79901  C = 391761.79901 [MHz]
  Nuclear repulsion =    0.330735755368750

  Charge       = 0
  Multiplicity = 1
  Electrons    = 2
  Nalpha       = 1
  Nbeta        = 1

  ==> Algorithm <==

  SCF Algorithm Type is PK.
  DIIS enabled.
  MOM disabled.
  Fractional occupation disabled.
  Guess Type is CORE.
  Energy threshold   = 1.00e-06
  Density threshold  = 1.00e-06
  Integral threshold = 0.00e+00

  ==> Primary Basis <==

  Basis Set: CC-PVDZ
    Number of shells: 6
    Number of basis function: 10
    Number of Cartesian functions: 10
    Spherical Harmonics?: true
    Max angular momentum: 1

  ==> Pre-Iterations <==

   -------------------------------------------------------
    Irrep   Nso     Nmo     Nalpha   Nbeta   Ndocc  Nsocc
   -------------------------------------------------------
     A         10      10       0       0       0       0
   -------------------------------------------------------
    Total      10      10       1       1       1       0
   -------------------------------------------------------

  Starting with a DF guess...

 OEINTS: Overlap, kinetic, potential, dipole, and quadrupole integrals
         stored in file 35.

  ==> Integral Setup <==

  ==> DFJK: Density-Fitted J/K Matrices <==

    J tasked:                  Yes
    K tasked:                  Yes
    wK tasked:                  No
    OpenMP threads:              1
    Integrals threads:           1
    Memory (MB):               183
    Algorithm:                Core
    Integral Cache:           NONE
    Schwarz Cutoff:          1E-12
    Fitting Condition:       1E-12

   => Auxiliary Basis Set <=

  Basis Set: 
    Number of shells: 18
    Number of basis function: 46
    Number of Cartesian functions: 50
    Spherical Harmonics?: true
    Max angular momentum: 2

  Minimum eigenvalue in the overlap matrix is 1.8426710352E-01.
  Using Symmetric Orthogonalization.
  SCF Guess: Core (One-Electron) Hamiltonian.

  ==> Iterations <==

                           Total Energy        Delta E     RMS |[F,P]|

   @DF-RHF iter   1:    -0.95468773942065   -9.54688e-01   1.65532e-02 
   @DF-RHF iter   2:    -0.98320825441334   -2.85205e-02   2.85351e-03 DIIS
   @DF-RHF iter   3:    -0.98410193412660   -8.93680e-04   1.01755e-04 DIIS
   @DF-RHF iter   4:    -0.98410278810978   -8.53983e-07   1.46875e-06 DIIS
   @DF-RHF iter   5:    -0.98410278834958   -2.39803e-10   1.44208e-10 DIIS

  DF guess converged.

  ==> Integral Setup <==

 MINTS: Wrapper to libmints.
   by Justin Turney

   Calculation information:
      Number of atoms:                   2
      Number of AO shells:               6
      Number of SO shells:               6
      Number of primitives:             10
      Number of atomic orbitals:        10
      Number of basis functions:        10

      Number of irreps:                  1
      Integral cutoff                 0.00e+00
      Number of functions per irrep: [  10 ]

 OEINTS: Overlap, kinetic, potential, dipole, and quadrupole integrals
         stored in file 35.

      Computing two-electron integrals...done
      Computed 512 non-zero two-electron integrals.
        Stored in file 33.

	Batch   1 pq = [       0,      55] index = [             0,1540]
  ==> DiskJK: Disk-Based J/K Matrices <==

    J tasked:                  Yes
    K tasked:                  Yes
    wK tasked:                  No
    Memory (MB):               183
    Schwarz Cutoff:          1E-12

   @RHF iter   6:    -0.98409678772889    6.00062e-06   1.59930e-06 DIIS
   @RHF iter   7:    -0.98409678791013   -1.81240e-10   2.62065e-07 DIIS

  ==> Post-Iterations <==

    Orbital Energies (a.u.)
    -----------------------

    Doubly Occupied:                                                      

       1A     -0.426555  

    Virtual:                                                              

       2A      0.022547     3A      0.659658     4A      0.665982  
       5A      1.256068     6A      1.403855     7A      1.403855  
       8A      1.583385     9A      1.583385    10A      2.031633  

    Final Occupation by Irrep:
              A 
    DOCC [     1 ]

  Energy converged.

  @RHF Final Energy:    -0.98409678791013

   => Energetics <=

    Nuclear Repulsion Energy =              0.3307357553687500
    One-Electron Energy =                  -1.7765554747652770
    Two-Electron Energy =                   0.4617229314863963
    DFT Exchange-Correlation Energy =       0.0000000000000000
    Empirical Dispersion Energy =           0.0000000000000000
    PCM Polarization Energy =               0.0000000000000000
    EFP Energy =                            0.0000000000000000
    Total Energy =                         -0.9840967879101307

    Alert: EFP and PCM quantities not currently incorporated into SCF psivars.

Properties will be evaluated at   0.000000,   0.000000,   0.000000 Bohr
  ==> Properties <==


Properties computed using the SCF density matrix

  Nuclear Dipole Moment: (a.u.)
     X:     0.0000      Y:     0.0000      Z:     0.0000

  Electronic Dipole Moment: (a.u.)
     X:     0.0000      Y:     0.0000      Z:     0.0000

  Dipole Moment: (a.u.)
     X:     0.0000      Y:     0.0000      Z:     0.0000     Total:     0.0000

  Dipole Moment: (Debye)
     X:     0.0000      Y:     0.0000      Z:     0.0000     Total:     0.0000


  Saving occupied orbitals to File 180.

*** tstop() called on Kevins-MacBook-Pro.local at Sun Apr 12 15:46:01 2015
Module time:
	user time   =       0.19 seconds =       0.00 minutes
	system time =       0.01 seconds =       0.00 minutes
	total time  =          1 seconds =       0.02 minutes
Total time:
	user time   =       0.20 seconds =       0.00 minutes
	system time =       0.01 seconds =       0.00 minutes
	total time  =          1 seconds =       0.02 minutes

*** tstart() called on Kevins-MacBook-Pro.local
*** at Sun Apr 12 15:46:01 2015


         ---------------------------------------------------------
                                   SCF
            by Justin Turney, Rob Parrish, and Andy Simmonett
                              RHF Reference
                        1 Threads,    256 MiB Core
         ---------------------------------------------------------

  ==> Geometry <==

    Molecular point group: c1
    Full point group: D_inf_h

    Geometry (in Angstrom), charge = 0, multiplicity = 1:

       Center              X                  Y                   Z       
    ------------   -----------------  -----------------  -----------------
           H          0.000000000000     0.000000000000    -0.800000000000
           H          0.000000000000     0.000000000000     0.800000000000

  Running in c1 symmetry.

  Rotational constants: A = ************  B =     13.06777  C =     13.06777 [cm^-1]
  Rotational constants: A = ************  B = 391761.79901  C = 391761.79901 [MHz]
  Nuclear repulsion =    0.330735755368750

  Charge       = 0
  Multiplicity = 1
  Electrons    = 2
  Nalpha       = 1
  Nbeta        = 1

  ==> Algorithm <==

  SCF Algorithm Type is PK.
  DIIS enabled.
  MOM disabled.
  Fractional occupation disabled.
  Guess Type is CORE.
  Energy threshold   = 1.00e-08
  Density threshold  = 1.00e-08
  Integral threshold = 0.00e+00

  ==> Primary Basis <==

  Basis Set: CC-PVDZ
    Number of shells: 6
    Number of basis function: 10
    Number of Cartesian functions: 10
    Spherical Harmonics?: true
    Max angular momentum: 1

  ==> Pre-Iterations <==

   -------------------------------------------------------
    Irrep   Nso     Nmo     Nalpha   Nbeta   Ndocc  Nsocc
   -------------------------------------------------------
     A         10      10       0       0       0       0
   -------------------------------------------------------
    Total      10      10       1       1       1       0
   -------------------------------------------------------

  Starting with a DF guess...

 OEINTS: Overlap, kinetic, potential, dipole, and quadrupole integrals
         stored in file 35.

  ==> Integral Setup <==

  ==> DFJK: Density-Fitted J/K Matrices <==

    J tasked:                  Yes
    K tasked:                  Yes
    wK tasked:                  No
    OpenMP threads:              1
    Integrals threads:           1
    Memory (MB):               183
    Algorithm:                Core
    Integral Cache:           NONE
    Schwarz Cutoff:          1E-12
    Fitting Condition:       1E-12

   => Auxiliary Basis Set <=

  Basis Set: 
    Number of shells: 18
    Number of basis function: 46
    Number of Cartesian functions: 50
    Spherical Harmonics?: true
    Max angular momentum: 2

  Minimum eigenvalue in the overlap matrix is 1.8426710352E-01.
  Using Symmetric Orthogonalization.
  SCF Guess: Core (One-Electron) Hamiltonian.

  ==> Iterations <==

                           Total Energy        Delta E     RMS |[F,P]|

   @DF-RHF iter   1:    -0.95468773942065   -9.54688e-01   1.65532e-02 
   @DF-RHF iter   2:    -0.98320825441334   -2.85205e-02   2.85351e-03 DIIS
   @DF-RHF iter   3:    -0.98410193412660   -8.93680e-04   1.01755e-04 DIIS
   @DF-RHF iter   4:    -0.98410278810978   -8.53983e-07   1.46875e-06 DIIS
   @DF-RHF iter   5:    -0.98410278834958   -2.39803e-10   1.44208e-10 DIIS

  DF guess converged.

  ==> Integral Setup <==

 MINTS: Wrapper to libmints.
   by Justin Turney

   Calculation information:
      Number of atoms:                   2
      Number of AO shells:               6
      Number of SO shells:               6
      Number of primitives:             10
      Number of atomic orbitals:        10
      Number of basis functions:        10

      Number of irreps:                  1
      Integral cutoff                 0.00e+00
      Number of functions per irrep: [  10 ]

 OEINTS: Overlap, kinetic, potential, dipole, and quadrupole integrals
         stored in file 35.

      Computing two-electron integrals...done
      Computed 512 non-zero two-electron integrals.
        Stored in file 33.

	Batch   1 pq = [       0,      55] index = [             0,1540]
  ==> DiskJK: Disk-Based J/K Matrices <==

    J tasked:                  Yes
    K tasked:                  Yes
    wK tasked:                  No
    Memory (MB):               183
    Schwarz Cutoff:          1E-12

   @RHF iter   6:    -0.98409678772889    6.00062e-06   1.59930e-06 DIIS
   @RHF iter   7:    -0.98409678791013   -1.81240e-10   2.62065e-07 DIIS
   @RHF iter   8:    -0.98409678791534   -5.21139e-12   6.76488e-09 DIIS

  ==> Post-Iterations <==

    Orbital Energies (a.u.)
    -----------------------

    Doubly Occupied:                                                      

       1A     -0.426555  

    Virtual:                                                              

       2A      0.022547     3A      0.659658     4A      0.665982  
       5A      1.256068     6A      1.403855     7A      1.403855  
       8A      1.583385     9A      1.583385    10A      2.031633  

    Final Occupation by Irrep:
              A 
    DOCC [     1 ]

  Energy converged.

  @RHF Final Energy:    -0.98409678791534

   => Energetics <=

    Nuclear Repulsion Energy =              0.3307357553687500
    One-Electron Energy =                  -1.7765555481328525
    Two-Electron Energy =                   0.4617230048487599
    DFT Exchange-Correlation Energy =       0.0000000000000000
    Empirical Dispersion Energy =           0.0000000000000000
    PCM Polarization Energy =               0.0000000000000000
    EFP Energy =                            0.0000000000000000
    Total Energy =                         -0.9840967879153426

    Alert: EFP and PCM quantities not currently incorporated into SCF psivars.

Properties will be evaluated at   0.000000,   0.000000,   0.000000 Bohr
  ==> Properties <==


Properties computed using the SCF density matrix

  Nuclear Dipole Moment: (a.u.)
     X:     0.0000      Y:     0.0000      Z:     0.0000

  Electronic Dipole Moment: (a.u.)
     X:     0.0000      Y:     0.0000      Z:     0.0000

  Dipole Moment: (a.u.)
     X:     0.0000      Y:     0.0000      Z:     0.0000     Total:     0.0000

  Dipole Moment: (Debye)
     X:     0.0000      Y:     0.0000      Z:     0.0000     Total:     0.0000


  Saving occupied orbitals to File 180.

*** tstop() called on Kevins-MacBook-Pro.local at Sun Apr 12 15:46:01 2015
Module time:
	user time   =       0.20 seconds =       0.00 minutes
	system time =       0.01 seconds =       0.00 minutes
	total time  =          0 seconds =       0.00 minutes
Total time:
	user time   =       0.41 seconds =       0.01 minutes
	system time =       0.02 seconds =       0.00 minutes
	total time  =          1 seconds =       0.02 minutes
Reading options from the SCF block
Calling plugin scf.so.
    Molecular point group: c1
    Full point group: D_inf_h

    Geometry (in Angstrom), charge = 0, multiplicity = 1:

       Center              X                  Y                   Z       
    ------------   -----------------  -----------------  -----------------
           H          0.000000000000     0.000000000000    -0.800000000000
           H          0.000000000000     0.000000000000     0.800000000000


    Nuclear repulsion energy:       0.33073576

  ## Overlap (Symmetry 0) ##
  Irrep: 1 Size: 10 x 10

                 1                   2                   3                   4                   5

    1     1.00000000000000     0.68486025149275     0.00000000000000     0.00000000000000     0.00000000000000
    2     0.68486025149275     1.00000000000000     0.00000000000000     0.00000000000000     0.00000000000000
    3     0.00000000000000     0.00000000000000     1.00000000000000     0.00000000000000     0.00000000000000
    4     0.00000000000000     0.00000000000000     0.00000000000000     1.00000000000000     0.00000000000000
    5     0.00000000000000     0.00000000000000     0.00000000000000     0.00000000000000     1.00000000000000
    6     0.09650198384124     0.28015291816059     0.12810073972554     0.00000000000000     0.00000000000000
    7     0.28015291816059     0.57254869630806     0.16753330594476     0.00000000000000     0.00000000000000
    8    -0.12810073972554    -0.16753330594476    -0.20349560669151     0.00000000000000     0.00000000000000
    9     0.00000000000000     0.00000000000000     0.00000000000000     0.03604128782673     0.00000000000000
   10     0.00000000000000     0.00000000000000     0.00000000000000     0.00000000000000     0.03604128782673

                 6                   7                   8                   9                  10

    1     0.09650198384124     0.28015291816059    -0.12810073972554     0.00000000000000     0.00000000000000
    2     0.28015291816059     0.57254869630806    -0.16753330594476     0.00000000000000     0.00000000000000
    3     0.12810073972554     0.16753330594476    -0.20349560669151     0.00000000000000     0.00000000000000
    4     0.00000000000000     0.00000000000000     0.00000000000000     0.03604128782673     0.00000000000000
    5     0.00000000000000     0.00000000000000     0.00000000000000     0.00000000000000     0.03604128782673
    6     1.00000000000000     0.68486025149275    -0.00000000000000     0.00000000000000     0.00000000000000
    7     0.68486025149275     1.00000000000000     0.00000000000000     0.00000000000000     0.00000000000000
    8    -0.00000000000000     0.00000000000000     1.00000000000000     0.00000000000000     0.00000000000000
    9     0.00000000000000     0.00000000000000     0.00000000000000     1.00000000000000     0.00000000000000
   10     0.00000000000000     0.00000000000000     0.00000000000000     0.00000000000000     1.00000000000000



  ## Kinetic (Symmetry 0) ##
  Irrep: 1 Size: 10 x 10

                 1                   2                   3                   4                   5

    1     0.96945722711242     0.20123413106538    -0.00000000000000     0.00000000000000     0.00000000000000
    2     0.20123413106538     0.18300000000000     0.00000000000000     0.00000000000000     0.00000000000000
    3    -0.00000000000000     0.00000000000000     1.81750000000000     0.00000000000000     0.00000000000000
    4     0.00000000000000     0.00000000000000     0.00000000000000     1.81750000000000     0.00000000000000
    5     0.00000000000000     0.00000000000000     0.00000000000000     0.00000000000000     1.81750000000000
    6    -0.03361088497401     0.03306278503789    -0.01640228824431     0.00000000000000     0.00000000000000
    7     0.03306278503789     0.06582351115177     0.05407957632439     0.00000000000000     0.00000000000000
    8     0.01640228824431    -0.05407957632439    -0.05237429589696     0.00000000000000     0.00000000000000
    9     0.00000000000000     0.00000000000000     0.00000000000000    -0.02156662053229     0.00000000000000
   10     0.00000000000000     0.00000000000000     0.00000000000000     0.00000000000000    -0.02156662053229

                 6                   7                   8                   9                  10

    1    -0.03361088497401     0.03306278503789     0.01640228824431     0.00000000000000     0.00000000000000
    2     0.03306278503789     0.06582351115177    -0.05407957632439     0.00000000000000     0.00000000000000
    3    -0.01640228824431     0.05407957632439    -0.05237429589696     0.00000000000000     0.00000000000000
    4     0.00000000000000     0.00000000000000     0.00000000000000    -0.02156662053229     0.00000000000000
    5     0.00000000000000     0.00000000000000     0.00000000000000     0.00000000000000    -0.02156662053229
    6     0.96945722711242     0.20123413106538     0.00000000000000     0.00000000000000     0.00000000000000
    7     0.20123413106538     0.18300000000000     0.00000000000000     0.00000000000000     0.00000000000000
    8     0.00000000000000     0.00000000000000     1.81750000000000     0.00000000000000     0.00000000000000
    9     0.00000000000000     0.00000000000000     0.00000000000000     1.81750000000000     0.00000000000000
   10     0.00000000000000     0.00000000000000     0.00000000000000     0.00000000000000     1.81750000000000



  ## Potential (Symmetry 0) ##
  Irrep: 1 Size: 10 x 10

                 1                   2                   3                   4                   5

    1    -1.70858543614766    -0.87595661389022    -0.06881221189261     0.00000000000000     0.00000000000000
    2    -0.87595661389022    -0.87664670523144    -0.06446274050117     0.00000000000000     0.00000000000000
    3    -0.06881221189261    -0.06446274050117    -1.26269570001565     0.00000000000000     0.00000000000000
    4     0.00000000000000     0.00000000000000     0.00000000000000    -1.22537580119307     0.00000000000000
    5     0.00000000000000     0.00000000000000     0.00000000000000     0.00000000000000    -1.22537580119307
    6    -0.12787046474933    -0.35954575329267    -0.16398866315897     0.00000000000000     0.00000000000000
    7    -0.35954575329267    -0.53708495399091    -0.21072851433955     0.00000000000000     0.00000000000000
    8     0.16398866315897     0.21072851433955     0.25693081371263     0.00000000000000     0.00000000000000
    9     0.00000000000000     0.00000000000000     0.00000000000000    -0.04063578994567     0.00000000000000
   10     0.00000000000000     0.00000000000000     0.00000000000000     0.00000000000000    -0.04063578994567

                 6                   7                   8                   9                  10

    1    -0.12787046474933    -0.35954575329267     0.16398866315897     0.00000000000000     0.00000000000000
    2    -0.35954575329267    -0.53708495399091     0.21072851433955     0.00000000000000     0.00000000000000
    3    -0.16398866315897    -0.21072851433955     0.25693081371263     0.00000000000000     0.00000000000000
    4     0.00000000000000     0.00000000000000     0.00000000000000    -0.04063578994567     0.00000000000000
    5     0.00000000000000     0.00000000000000     0.00000000000000     0.00000000000000    -0.04063578994567
    6    -1.70858543614766    -0.87595661389022     0.06881221189261     0.00000000000000     0.00000000000000
    7    -0.87595661389022    -0.87664670523144     0.06446274050117     0.00000000000000     0.00000000000000
    8     0.06881221189261     0.06446274050117    -1.26269570001565     0.00000000000000     0.00000000000000
    9     0.00000000000000     0.00000000000000     0.00000000000000    -1.22537580119307     0.00000000000000
   10     0.00000000000000     0.00000000000000     0.00000000000000     0.00000000000000    -1.22537580119307



  ## One Electron Ints (Symmetry 0) ##
  Irrep: 1 Size: 10 x 10

                 1                   2                   3                   4                   5

    1    -0.73912820903524    -0.67472248282484    -0.06881221189261     0.00000000000000     0.00000000000000
    2    -0.67472248282484    -0.69364670523144    -0.06446274050117     0.00000000000000     0.00000000000000
    3    -0.06881221189261    -0.06446274050117     0.55480429998435     0.00000000000000     0.00000000000000
    4     0.00000000000000     0.00000000000000     0.00000000000000     0.59212419880693     0.00000000000000
    5     0.00000000000000     0.00000000000000     0.00000000000000     0.00000000000000     0.59212419880693
    6    -0.16148134972334    -0.32648296825478    -0.18039095140328     0.00000000000000     0.00000000000000
    7    -0.32648296825478    -0.47126144283913    -0.15664893801516     0.00000000000000     0.00000000000000
    8     0.18039095140328     0.15664893801516     0.20455651781567     0.00000000000000     0.00000000000000
    9     0.00000000000000     0.00000000000000     0.00000000000000    -0.06220241047797     0.00000000000000
   10     0.00000000000000     0.00000000000000     0.00000000000000     0.00000000000000    -0.06220241047797

                 6                   7                   8                   9                  10

    1    -0.16148134972334    -0.32648296825478     0.18039095140328     0.00000000000000     0.00000000000000
    2    -0.32648296825478    -0.47126144283913     0.15664893801516     0.00000000000000     0.00000000000000
    3    -0.18039095140328    -0.15664893801516     0.20455651781567     0.00000000000000     0.00000000000000
    4     0.00000000000000     0.00000000000000     0.00000000000000    -0.06220241047797     0.00000000000000
    5     0.00000000000000     0.00000000000000     0.00000000000000     0.00000000000000    -0.06220241047797
    6    -0.73912820903524    -0.67472248282484     0.06881221189261     0.00000000000000     0.00000000000000
    7    -0.67472248282484    -0.69364670523144     0.06446274050117     0.00000000000000     0.00000000000000
    8     0.06881221189261     0.06446274050117     0.55480429998435     0.00000000000000     0.00000000000000
    9     0.00000000000000     0.00000000000000     0.00000000000000     0.59212419880693     0.00000000000000
   10     0.00000000000000     0.00000000000000     0.00000000000000     0.00000000000000     0.59212419880693




	There are 0 unique integrals

  ## Fock (Symmetry 0) ##
  Irrep: 1 Size: 10 x 10

                 1                   2                   3                   4                   5

    1    -0.49536115221933    -0.35340633218516    -0.05663109139539    -0.00000000000000     0.00000000000000
    2    -0.35340633218516    -0.32596039963205     0.09828015856248     0.00000000000000     0.00000000000000
    3    -0.05663109139539     0.09828015856248     0.68286894028032    -0.00000000000000     0.00000000000000
    4    -0.00000000000000     0.00000000000000    -0.00000000000000     0.59513912429016     0.00000000000000
    5     0.00000000000000     0.00000000000000     0.00000000000000     0.00000000000000     0.59513912429016
    6    -0.00317278548318    -0.05253236688300    -0.10180568371623    -0.00000000000000     0.00000000000000
    7    -0.05253236688300    -0.12328853386009    -0.16415489550796     0.00000000000000     0.00000000000000
    8     0.10180568371623     0.16415489550796     0.36381842440443    -0.00000000000000     0.00000000000000
    9     0.00000000000000    -0.00000000000000    -0.00000000000000    -0.08365199095346     0.00000000000000
   10     0.00000000000000     0.00000000000000     0.00000000000000     0.00000000000000    -0.08365199095346

                 6                   7                   8                   9                  10

    1    -0.00317278548318    -0.05253236688300     0.10180568371623     0.00000000000000     0.00000000000000
    2    -0.05253236688300    -0.12328853386009     0.16415489550796    -0.00000000000000     0.00000000000000
    3    -0.10180568371623    -0.16415489550796     0.36381842440443    -0.00000000000000     0.00000000000000
    4    -0.00000000000000     0.00000000000000    -0.00000000000000    -0.08365199095346     0.00000000000000
    5     0.00000000000000     0.00000000000000     0.00000000000000     0.00000000000000    -0.08365199095346
    6    -0.49536115221933    -0.35340633218516     0.05663109139539     0.00000000000000     0.00000000000000
    7    -0.35340633218516    -0.32596039963205    -0.09828015856248    -0.00000000000000     0.00000000000000
    8     0.05663109139539    -0.09828015856248     0.68286894028032    -0.00000000000000     0.00000000000000
    9     0.00000000000000    -0.00000000000000    -0.00000000000000     0.59513912429016     0.00000000000000
   10     0.00000000000000     0.00000000000000     0.00000000000000     0.00000000000000     0.59513912429016



  ## C (Symmetry 0) ##
  Irrep: 1 Size: 10 x 10

                 1                   2                   3                   4                   5

    1     0.35141346728705     0.39679144692334     0.16001560222549    -0.00791977841231    -0.01378856571444
    2     0.57568087894085     0.38261401365326    -0.17089307679042     0.17567411332529     0.31752126614367
    3    -0.43967162222259     0.56942864714481    -0.10946504051528     0.12573097209964     0.07396004977525
    4     0.39921516411359    -0.57147515204147     0.12054501023627     0.00000000000000     0.01275287523605
    5    -0.13546475559133     0.01407808356337     0.70678511330726     0.00000000000000     0.00000000000000
    6     0.03868450883136     0.01174067424403     0.00206869534068    -0.72368282569752     0.66756524653217
    7    -0.20221670821634    -0.23112606744632     0.04900121836652    -0.05957206219292    -1.14528705048477
    8     0.02476410501929     0.11824362595935    -0.01862119127595     0.74641920099915     0.05428505921634
    9    -0.00719645207853     0.01030169671753    -0.00217300460366     0.00000000000000    -0.70745155039192
   10     0.00947505378735    -0.14150628258076    -0.70567718128256     0.00000000000000     0.00000000000000

                 6                   7                   8                   9                  10

    1     0.98318240337747     0.82122838591974    -0.07990797073336    -0.03716729452970    -0.01378856571444
    2    -1.20655818083562    -0.81473528270892    -0.05509294701594     0.00807384170296     0.31752126614367
    3    -0.53177680596872     0.50755026088412     0.09778620083743    -0.04167793886535     0.07396004977525
    4    -0.39921516411359     0.57147515204147     0.12054501023627     0.00000000000000    -0.01275287523605
    5    -0.13521110887386     0.00898385169647    -0.68179455964845    -0.00000000000000     0.00000000000000
    6     0.00470141279723    -0.01108995327559    -0.00637771589954    -0.73415618588372     0.66756524653217
    7     0.34246184612088     0.13480154490274     0.02006344502533     0.05200165718291    -1.14528705048477
    8    -0.11359153912373     0.02529311393143     0.00107784224007    -0.71865383565916     0.05428505921634
    9     0.00719645207853    -0.01030169671753    -0.00217300460366    -0.00000000000000     0.70745155039192
   10    -0.00459571536902     0.14109055660927    -0.68064595007711     0.00000000000000    -0.00000000000000




 In Bisection function HOMO = -0.902  LUMO =  1.100

 0.09898 = (-0.90176 + 1.09973)/2.0
 sum -  nocc_ = 2.87301294
 On Iteration in Bisection 0
 a: 2.87301  b:-0.46026

 -0.40139 = (-0.90176 + 0.09898)/2.0
 sum -  nocc_ = 1.00033336
 On Iteration in Bisection 1
 a: 1.00033  b:-0.46026

 -0.65158 = (-0.90176 + -0.40139)/2.0
 sum -  nocc_ = 0.66382840
 On Iteration in Bisection 2
 a: 0.66383  b:-0.46026

 -0.77667 = (-0.90176 + -0.65158)/2.0
 sum -  nocc_ = 0.10793447
 On Iteration in Bisection 3
 a: 0.10793  b:-0.46026

 -0.83921 = (-0.90176 + -0.77667)/2.0
 sum -  nocc_ = -0.17139066
 On Iteration in Bisection 4
 a: -0.17139  b:-0.46026

 -0.80794 = (-0.83921 + -0.77667)/2.0
 sum -  nocc_ = -0.03120195
 On Iteration in Bisection 5
 a: -0.03120  b:-0.17139

 -0.79230 = (-0.80794 + -0.77667)/2.0
 sum -  nocc_ = 0.03819076
 On Iteration in Bisection 6
 a: 0.03819  b:-0.03120

 -0.80012 = (-0.80794 + -0.79230)/2.0
 sum -  nocc_ = 0.00349014
 On Iteration in Bisection 7
 a: 0.00349  b:-0.03120

 -0.80403 = (-0.80794 + -0.80012)/2.0
 sum -  nocc_ = -0.01385180
 On Iteration in Bisection 8
 a: -0.01385  b:-0.03120

 -0.80208 = (-0.80403 + -0.80012)/2.0
 sum -  nocc_ = -0.00518045
 On Iteration in Bisection 9
 a: -0.00518  b:-0.01385

 -0.80110 = (-0.80208 + -0.80012)/2.0
 sum -  nocc_ = -0.00084514
 On Iteration in Bisection 10
 a: -0.00085  b:-0.00518

 -0.80061 = (-0.80110 + -0.80012)/2.0
 sum -  nocc_ = 0.00132249
 On Iteration in Bisection 11
 a: 0.00132  b:-0.00085

 -0.80086 = (-0.80110 + -0.80061)/2.0
 sum -  nocc_ = 0.00023867
 On Iteration in Bisection 12
 a: 0.00024  b:-0.00085

 -0.80098 = (-0.80110 + -0.80086)/2.0
 sum -  nocc_ = -0.00030323
 On Iteration in Bisection 13
 a: -0.00030  b:-0.00085

 -0.80092 = (-0.80098 + -0.80086)/2.0
 sum -  nocc_ = -0.00003228
 On Iteration in Bisection 14
 a: -0.00003  b:-0.00030

 -0.80089 = (-0.80092 + -0.80086)/2.0
 sum -  nocc_ = 0.00010320
 On Iteration in Bisection 15
 a: 0.00010  b:-0.00003

 -0.80090 = (-0.80092 + -0.80089)/2.0
 sum -  nocc_ = 0.00003546
 On Iteration in Bisection 16
 a: 0.00004  b:-0.00003

 -0.80091 = (-0.80092 + -0.80090)/2.0
 sum -  nocc_ = 0.00000159
 On Iteration in Bisection 17
 a: 0.00000  b:-0.00003

 -0.80091 = (-0.80092 + -0.80091)/2.0
 sum -  nocc_ = -0.00001535
 On Iteration in Bisection 18
 a: -0.00002  b:-0.00003

 -0.80091 = (-0.80091 + -0.80091)/2.0
 sum -  nocc_ = -0.00000688
 On Iteration in Bisection 19
 a: -0.00001  b:-0.00002

 -0.80091 = (-0.80091 + -0.80091)/2.0
 sum -  nocc_ = -0.00000264
 On Iteration in Bisection 20
 a: -0.00000  b:-0.00001

 -0.80091 = (-0.80091 + -0.80091)/2.0
 sum -  nocc_ = -0.00000053
 On Iteration in Bisection 21
 a: -0.00000  b:-0.00000

 -0.80091 = (-0.80091 + -0.80091)/2.0
 sum -  nocc_ = 0.00000053
 On Iteration in Bisection 22
 a: 0.00000  b:-0.00000

 -0.80091 = (-0.80091 + -0.80091)/2.0
 sum -  nocc_ = 0.00000000
 ef = -0.80091 sum = 1.00000 

 Iter: 0  T:    20000.000  val:-0.800910  sumni 0.00000
 ne = 1.0000

Nuc Replusion =       0.330735755369
 1st iteration =      -0.340597353520
 In Bisection function HOMO = -0.272  LUMO =  2.064

 0.89598 = (-0.27223 + 2.06419)/2.0
 sum -  nocc_ = 2.45199471
 On Iteration in Bisection 0
 a: 2.45199  b:-0.49191

 0.31187 = (-0.27223 + 0.89598)/2.0
 sum -  nocc_ = 1.13985787
 On Iteration in Bisection 1
 a: 1.13986  b:-0.49191

 0.01982 = (-0.27223 + 0.31187)/2.0
 sum -  nocc_ = 0.44201763
 On Iteration in Bisection 2
 a: 0.44202  b:-0.49191

 -0.12621 = (-0.27223 + 0.01982)/2.0
 sum -  nocc_ = -0.01503898
 On Iteration in Bisection 3
 a: -0.01504  b:-0.49191

 -0.05319 = (-0.12621 + 0.01982)/2.0
 sum -  nocc_ = 0.17539475
 On Iteration in Bisection 4
 a: 0.17539  b:-0.01504

 -0.08970 = (-0.12621 + -0.05319)/2.0
 sum -  nocc_ = 0.07406371
 On Iteration in Bisection 5
 a: 0.07406  b:-0.01504

 -0.10795 = (-0.12621 + -0.08970)/2.0
 sum -  nocc_ = 0.02886582
 On Iteration in Bisection 6
 a: 0.02887  b:-0.01504

 -0.11708 = (-0.12621 + -0.10795)/2.0
 sum -  nocc_ = 0.00687366
 On Iteration in Bisection 7
 a: 0.00687  b:-0.01504

 -0.12164 = (-0.12621 + -0.11708)/2.0
 sum -  nocc_ = -0.00407712
 On Iteration in Bisection 8
 a: -0.00408  b:-0.01504

 -0.11936 = (-0.12164 + -0.11708)/2.0
 sum -  nocc_ = 0.00139772
 On Iteration in Bisection 9
 a: 0.00140  b:-0.00408

 -0.12050 = (-0.12164 + -0.11936)/2.0
 sum -  nocc_ = -0.00133960
 On Iteration in Bisection 10
 a: -0.00134  b:-0.00408

 -0.11993 = (-0.12050 + -0.11936)/2.0
 sum -  nocc_ = 0.00002905
 On Iteration in Bisection 11
 a: 0.00003  b:-0.00134

 -0.12022 = (-0.12050 + -0.11993)/2.0
 sum -  nocc_ = -0.00065527
 On Iteration in Bisection 12
 a: -0.00066  b:-0.00134

 -0.12008 = (-0.12022 + -0.11993)/2.0
 sum -  nocc_ = -0.00031311
 On Iteration in Bisection 13
 a: -0.00031  b:-0.00066

 -0.12000 = (-0.12008 + -0.11993)/2.0
 sum -  nocc_ = -0.00014203
 On Iteration in Bisection 14
 a: -0.00014  b:-0.00031

 -0.11997 = (-0.12000 + -0.11993)/2.0
 sum -  nocc_ = -0.00005649
 On Iteration in Bisection 15
 a: -0.00006  b:-0.00014

 -0.11995 = (-0.11997 + -0.11993)/2.0
 sum -  nocc_ = -0.00001372
 On Iteration in Bisection 16
 a: -0.00001  b:-0.00006

 -0.11994 = (-0.11995 + -0.11993)/2.0
 sum -  nocc_ = 0.00000767
 On Iteration in Bisection 17
 a: 0.00001  b:-0.00001

 -0.11995 = (-0.11995 + -0.11994)/2.0
 sum -  nocc_ = -0.00000302
 On Iteration in Bisection 18
 a: -0.00000  b:-0.00001

 -0.11994 = (-0.11995 + -0.11994)/2.0
 sum -  nocc_ = 0.00000232
 On Iteration in Bisection 19
 a: 0.00000  b:-0.00000

 -0.11995 = (-0.11995 + -0.11994)/2.0
 sum -  nocc_ = -0.00000035
 On Iteration in Bisection 20
 a: -0.00000  b:-0.00000

 -0.11995 = (-0.11995 + -0.11994)/2.0
 sum -  nocc_ = 0.00000099
 On Iteration in Bisection 21
 a: 0.00000  b:-0.00000

 -0.11995 = (-0.11995 + -0.11995)/2.0
 sum -  nocc_ = 0.00000032
 On Iteration in Bisection 22
 a: 0.00000  b:-0.00000

 -0.11995 = (-0.11995 + -0.11995)/2.0
 sum -  nocc_ = -0.00000002
 On Iteration in Bisection 23
 a: -0.00000  b:-0.00000

 -0.11995 = (-0.11995 + -0.11995)/2.0
 sum -  nocc_ = 0.00000015
 On Iteration in Bisection 24
 a: 0.00000  b:-0.00000

 -0.11995 = (-0.11995 + -0.11995)/2.0
 sum -  nocc_ = 0.00000007
 On Iteration in Bisection 25
 a: 0.00000  b:-0.00000

 -0.11995 = (-0.11995 + -0.11995)/2.0
 sum -  nocc_ = 0.00000002
 On Iteration in Bisection 26
 a: 0.00000  b:-0.00000

 -0.11995 = (-0.11995 + -0.11995)/2.0
 sum -  nocc_ = 0.00000000
 ef = -0.11995 sum = 1.00000 

 Iter: 0  T:    20000.000  val:-0.119946  sumni 0.00000
 ne = 1.0000

 iter:1  failiter:1  energy:     -1.072450117727  total:     -0.741714362359  error:     -0.088353329812
 In Bisection function HOMO = -0.349  LUMO =  2.074

 0.86254 = (-0.34902 + 2.07411)/2.0
 sum -  nocc_ = 2.69976373
 On Iteration in Bisection 0
 a: 2.69976  b:-0.48995

 0.25676 = (-0.34902 + 0.86254)/2.0
 sum -  nocc_ = 1.01413994
 On Iteration in Bisection 1
 a: 1.01414  b:-0.48995

 -0.04613 = (-0.34902 + 0.25676)/2.0
 sum -  nocc_ = 0.53992427
 On Iteration in Bisection 2
 a: 0.53992  b:-0.48995

 -0.19757 = (-0.34902 + -0.04613)/2.0
 sum -  nocc_ = 0.01606279
 On Iteration in Bisection 3
 a: 0.01606  b:-0.48995

 -0.27330 = (-0.34902 + -0.19757)/2.0
 sum -  nocc_ = -0.19976743
 On Iteration in Bisection 4
 a: -0.19977  b:-0.48995

 -0.23544 = (-0.27330 + -0.19757)/2.0
 sum -  nocc_ = -0.08511607
 On Iteration in Bisection 5
 a: -0.08512  b:-0.19977

 -0.21651 = (-0.23544 + -0.19757)/2.0
 sum -  nocc_ = -0.03378766
 On Iteration in Bisection 6
 a: -0.03379  b:-0.08512

 -0.20704 = (-0.21651 + -0.19757)/2.0
 sum -  nocc_ = -0.00881337
 On Iteration in Bisection 7
 a: -0.00881  b:-0.03379

 -0.20231 = (-0.20704 + -0.19757)/2.0
 sum -  nocc_ = 0.00361963
 On Iteration in Bisection 8
 a: 0.00362  b:-0.00881

 -0.20467 = (-0.20704 + -0.20231)/2.0
 sum -  nocc_ = -0.00259597
 On Iteration in Bisection 9
 a: -0.00260  b:-0.00881

 -0.20349 = (-0.20467 + -0.20231)/2.0
 sum -  nocc_ = 0.00051178
 On Iteration in Bisection 10
 a: 0.00051  b:-0.00260

 -0.20408 = (-0.20467 + -0.20349)/2.0
 sum -  nocc_ = -0.00104207
 On Iteration in Bisection 11
 a: -0.00104  b:-0.00260

 -0.20379 = (-0.20408 + -0.20349)/2.0
 sum -  nocc_ = -0.00026514
 On Iteration in Bisection 12
 a: -0.00027  b:-0.00104

 -0.20364 = (-0.20379 + -0.20349)/2.0
 sum -  nocc_ = 0.00012332
 On Iteration in Bisection 13
 a: 0.00012  b:-0.00027

 -0.20371 = (-0.20379 + -0.20364)/2.0
 sum -  nocc_ = -0.00007091
 On Iteration in Bisection 14
 a: -0.00007  b:-0.00027

 -0.20368 = (-0.20371 + -0.20364)/2.0
 sum -  nocc_ = 0.00002620
 On Iteration in Bisection 15
 a: 0.00003  b:-0.00007

 -0.20369 = (-0.20371 + -0.20368)/2.0
 sum -  nocc_ = -0.00002235
 On Iteration in Bisection 16
 a: -0.00002  b:-0.00007

 -0.20368 = (-0.20369 + -0.20368)/2.0
 sum -  nocc_ = 0.00000193
 On Iteration in Bisection 17
 a: 0.00000  b:-0.00002

 -0.20369 = (-0.20369 + -0.20368)/2.0
 sum -  nocc_ = -0.00001021
 On Iteration in Bisection 18
 a: -0.00001  b:-0.00002

 -0.20369 = (-0.20369 + -0.20368)/2.0
 sum -  nocc_ = -0.00000414
 On Iteration in Bisection 19
 a: -0.00000  b:-0.00001

 -0.20369 = (-0.20369 + -0.20368)/2.0
 sum -  nocc_ = -0.00000111
 On Iteration in Bisection 20
 a: -0.00000  b:-0.00000

 -0.20369 = (-0.20369 + -0.20368)/2.0
 sum -  nocc_ = 0.00000041
 On Iteration in Bisection 21
 a: 0.00000  b:-0.00000

 -0.20369 = (-0.20369 + -0.20369)/2.0
 sum -  nocc_ = -0.00000035
 On Iteration in Bisection 22
 a: -0.00000  b:-0.00000

 -0.20369 = (-0.20369 + -0.20369)/2.0
 sum -  nocc_ = 0.00000003
 On Iteration in Bisection 23
 a: 0.00000  b:-0.00000

 -0.20369 = (-0.20369 + -0.20369)/2.0
 sum -  nocc_ = -0.00000016
 On Iteration in Bisection 24
 a: -0.00000  b:-0.00000

 -0.20369 = (-0.20369 + -0.20369)/2.0
 sum -  nocc_ = -0.00000007
 On Iteration in Bisection 25
 a: -0.00000  b:-0.00000

 -0.20369 = (-0.20369 + -0.20369)/2.0
 sum -  nocc_ = -0.00000002
 On Iteration in Bisection 26
 a: -0.00000  b:-0.00000

 -0.20369 = (-0.20369 + -0.20369)/2.0
 sum -  nocc_ = 0.00000000
 ef = -0.20369 sum = 1.00000 

 Iter: 1  T:    20000.000  val:-0.203685  sumni 0.00000
 ne = 1.0000

 iter:2  failiter:2  energy:     -1.188750878332  total:     -0.858015122963  error:     -0.116300760604
 In Bisection function HOMO = -0.405  LUMO =  2.023

 0.80916 = (-0.40513 + 2.02345)/2.0
 sum -  nocc_ = 2.82787631
 On Iteration in Bisection 0
 a: 2.82788  b:-0.49819

 0.20202 = (-0.40513 + 0.80916)/2.0
 sum -  nocc_ = 0.96496241
 On Iteration in Bisection 1
 a: 0.96496  b:-0.49819

 -0.10156 = (-0.40513 + 0.20202)/2.0
 sum -  nocc_ = 0.17107396
 On Iteration in Bisection 2
 a: 0.17107  b:-0.49819

 -0.25334 = (-0.40513 + -0.10156)/2.0
 sum -  nocc_ = -0.06393212
 On Iteration in Bisection 3
 a: -0.06393  b:-0.49819

 -0.17745 = (-0.25334 + -0.10156)/2.0
 sum -  nocc_ = 0.03510480
 On Iteration in Bisection 4
 a: 0.03510  b:-0.06393

 -0.21540 = (-0.25334 + -0.17745)/2.0
 sum -  nocc_ = -0.01267923
 On Iteration in Bisection 5
 a: -0.01268  b:-0.06393

 -0.19642 = (-0.21540 + -0.17745)/2.0
 sum -  nocc_ = 0.01084140
 On Iteration in Bisection 6
 a: 0.01084  b:-0.01268

 -0.20591 = (-0.21540 + -0.19642)/2.0
 sum -  nocc_ = -0.00091110
 On Iteration in Bisection 7
 a: -0.00091  b:-0.01268

 -0.20117 = (-0.20591 + -0.19642)/2.0
 sum -  nocc_ = 0.00495452
 On Iteration in Bisection 8
 a: 0.00495  b:-0.00091

 -0.20354 = (-0.20591 + -0.20117)/2.0
 sum -  nocc_ = 0.00202062
 On Iteration in Bisection 9
 a: 0.00202  b:-0.00091

 -0.20472 = (-0.20591 + -0.20354)/2.0
 sum -  nocc_ = 0.00055468
 On Iteration in Bisection 10
 a: 0.00055  b:-0.00091

 -0.20532 = (-0.20591 + -0.20472)/2.0
 sum -  nocc_ = -0.00017820
 On Iteration in Bisection 11
 a: -0.00018  b:-0.00091

 -0.20502 = (-0.20532 + -0.20472)/2.0
 sum -  nocc_ = 0.00018824
 On Iteration in Bisection 12
 a: 0.00019  b:-0.00018

 -0.20517 = (-0.20532 + -0.20502)/2.0
 sum -  nocc_ = 0.00000502
 On Iteration in Bisection 13
 a: 0.00001  b:-0.00018

 -0.20524 = (-0.20532 + -0.20517)/2.0
 sum -  nocc_ = -0.00008659
 On Iteration in Bisection 14
 a: -0.00009  b:-0.00018

 -0.20520 = (-0.20524 + -0.20517)/2.0
 sum -  nocc_ = -0.00004079
 On Iteration in Bisection 15
 a: -0.00004  b:-0.00009

 -0.20519 = (-0.20520 + -0.20517)/2.0
 sum -  nocc_ = -0.00001789
 On Iteration in Bisection 16
 a: -0.00002  b:-0.00004

 -0.20518 = (-0.20519 + -0.20517)/2.0
 sum -  nocc_ = -0.00000643
 On Iteration in Bisection 17
 a: -0.00001  b:-0.00002

 -0.20517 = (-0.20518 + -0.20517)/2.0
 sum -  nocc_ = -0.00000071
 On Iteration in Bisection 18
 a: -0.00000  b:-0.00001

 -0.20517 = (-0.20517 + -0.20517)/2.0
 sum -  nocc_ = 0.00000215
 On Iteration in Bisection 19
 a: 0.00000  b:-0.00000

 -0.20517 = (-0.20517 + -0.20517)/2.0
 sum -  nocc_ = 0.00000072
 On Iteration in Bisection 20
 a: 0.00000  b:-0.00000

 -0.20517 = (-0.20517 + -0.20517)/2.0
 sum -  nocc_ = 0.00000001
 ef = -0.20517 sum = 1.00000 

 Iter: 2  T:    20000.000  val:-0.205171  sumni 0.00000
 ne = 1.0000

 iter:3  failiter:3  energy:     -1.267363849165  total:     -0.936628093796  error:     -0.078612970833
 In Bisection function HOMO = -0.418  LUMO =  2.027

 0.80436 = (-0.41789 + 2.02661)/2.0
 sum -  nocc_ = 2.81498133
 On Iteration in Bisection 0
 a: 2.81498  b:-0.49884

 0.19323 = (-0.41789 + 0.80436)/2.0
 sum -  nocc_ = 0.94871519
 On Iteration in Bisection 1
 a: 0.94872  b:-0.49884

 -0.11233 = (-0.41789 + 0.19323)/2.0
 sum -  nocc_ = 0.11864516
 On Iteration in Bisection 2
 a: 0.11865  b:-0.49884

 -0.26511 = (-0.41789 + -0.11233)/2.0
 sum -  nocc_ = -0.06941206
 On Iteration in Bisection 3
 a: -0.06941  b:-0.49884

 -0.18872 = (-0.26511 + -0.11233)/2.0
 sum -  nocc_ = 0.01546691
 On Iteration in Bisection 4
 a: 0.01547  b:-0.06941

 -0.22692 = (-0.26511 + -0.18872)/2.0
 sum -  nocc_ = -0.02354219
 On Iteration in Bisection 5
 a: -0.02354  b:-0.06941

 -0.20782 = (-0.22692 + -0.18872)/2.0
 sum -  nocc_ = -0.00389433
 On Iteration in Bisection 6
 a: -0.00389  b:-0.02354

 -0.19827 = (-0.20782 + -0.18872)/2.0
 sum -  nocc_ = 0.00573361
 On Iteration in Bisection 7
 a: 0.00573  b:-0.00389

 -0.20304 = (-0.20782 + -0.19827)/2.0
 sum -  nocc_ = 0.00091753
 On Iteration in Bisection 8
 a: 0.00092  b:-0.00389

 -0.20543 = (-0.20782 + -0.20304)/2.0
 sum -  nocc_ = -0.00148755
 On Iteration in Bisection 9
 a: -0.00149  b:-0.00389

 -0.20424 = (-0.20543 + -0.20304)/2.0
 sum -  nocc_ = -0.00028497
 On Iteration in Bisection 10
 a: -0.00028  b:-0.00149

 -0.20364 = (-0.20424 + -0.20304)/2.0
 sum -  nocc_ = 0.00031627
 On Iteration in Bisection 11
 a: 0.00032  b:-0.00028

 -0.20394 = (-0.20424 + -0.20364)/2.0
 sum -  nocc_ = 0.00001565
 On Iteration in Bisection 12
 a: 0.00002  b:-0.00028

 -0.20409 = (-0.20424 + -0.20394)/2.0
 sum -  nocc_ = -0.00013466
 On Iteration in Bisection 13
 a: -0.00013  b:-0.00028

 -0.20401 = (-0.20409 + -0.20394)/2.0
 sum -  nocc_ = -0.00005950
 On Iteration in Bisection 14
 a: -0.00006  b:-0.00013

 -0.20398 = (-0.20401 + -0.20394)/2.0
 sum -  nocc_ = -0.00002193
 On Iteration in Bisection 15
 a: -0.00002  b:-0.00006

 -0.20396 = (-0.20398 + -0.20394)/2.0
 sum -  nocc_ = -0.00000314
 On Iteration in Bisection 16
 a: -0.00000  b:-0.00002

 -0.20395 = (-0.20396 + -0.20394)/2.0
 sum -  nocc_ = 0.00000626
 On Iteration in Bisection 17
 a: 0.00001  b:-0.00000

 -0.20395 = (-0.20396 + -0.20395)/2.0
 sum -  nocc_ = 0.00000156
 On Iteration in Bisection 18
 a: 0.00000  b:-0.00000

 -0.20396 = (-0.20396 + -0.20395)/2.0
 sum -  nocc_ = -0.00000079
 On Iteration in Bisection 19
 a: -0.00000  b:-0.00000

 -0.20395 = (-0.20396 + -0.20395)/2.0
 sum -  nocc_ = 0.00000038
 On Iteration in Bisection 20
 a: 0.00000  b:-0.00000

 -0.20395 = (-0.20396 + -0.20395)/2.0
 sum -  nocc_ = -0.00000020
 On Iteration in Bisection 21
 a: -0.00000  b:-0.00000

 -0.20395 = (-0.20395 + -0.20395)/2.0
 sum -  nocc_ = 0.00000009
 On Iteration in Bisection 22
 a: 0.00000  b:-0.00000

 -0.20395 = (-0.20395 + -0.20395)/2.0
 sum -  nocc_ = -0.00000006
 On Iteration in Bisection 23
 a: -0.00000  b:-0.00000

 -0.20395 = (-0.20395 + -0.20395)/2.0
 sum -  nocc_ = 0.00000002
 On Iteration in Bisection 24
 a: 0.00000  b:-0.00000

 -0.20395 = (-0.20395 + -0.20395)/2.0
 sum -  nocc_ = -0.00000002
 On Iteration in Bisection 25
 a: -0.00000  b:-0.00000

 -0.20395 = (-0.20395 + -0.20395)/2.0
 sum -  nocc_ = -0.00000000
 ef = -0.20395 sum = 1.00000 

 Iter: 3  T:    20000.000  val:-0.203954  sumni 0.00000
 ne = 1.0000

 iter:4  failiter:4  energy:     -1.284345242228  total:     -0.953609486859  error:     -0.016981393063
 In Bisection function HOMO = -0.419  LUMO =  2.028

 0.80418 = (-0.41944 + 2.02780)/2.0
 sum -  nocc_ = 2.81288403
 On Iteration in Bisection 0
 a: 2.81288  b:-0.49891

 0.19237 = (-0.41944 + 0.80418)/2.0
 sum -  nocc_ = 0.94585533
 On Iteration in Bisection 1
 a: 0.94586  b:-0.49891

 -0.11354 = (-0.41944 + 0.19237)/2.0
 sum -  nocc_ = 0.11210442
 On Iteration in Bisection 2
 a: 0.11210  b:-0.49891

 -0.26649 = (-0.41944 + -0.11354)/2.0
 sum -  nocc_ = -0.06998860
 On Iteration in Bisection 3
 a: -0.06999  b:-0.49891

 -0.19001 = (-0.26649 + -0.11354)/2.0
 sum -  nocc_ = 0.01315806
 On Iteration in Bisection 4
 a: 0.01316  b:-0.06999

 -0.22825 = (-0.26649 + -0.19001)/2.0
 sum -  nocc_ = -0.02477529
 On Iteration in Bisection 5
 a: -0.02478  b:-0.06999

 -0.20913 = (-0.22825 + -0.19001)/2.0
 sum -  nocc_ = -0.00560060
 On Iteration in Bisection 6
 a: -0.00560  b:-0.02478

 -0.19957 = (-0.20913 + -0.19001)/2.0
 sum -  nocc_ = 0.00374398
 On Iteration in Bisection 7
 a: 0.00374  b:-0.00560

 -0.20435 = (-0.20913 + -0.19957)/2.0
 sum -  nocc_ = -0.00092616
 On Iteration in Bisection 8
 a: -0.00093  b:-0.00560

 -0.20196 = (-0.20435 + -0.19957)/2.0
 sum -  nocc_ = 0.00140809
 On Iteration in Bisection 9
 a: 0.00141  b:-0.00093

 -0.20316 = (-0.20435 + -0.20196)/2.0
 sum -  nocc_ = 0.00024093
 On Iteration in Bisection 10
 a: 0.00024  b:-0.00093

 -0.20376 = (-0.20435 + -0.20316)/2.0
 sum -  nocc_ = -0.00034261
 On Iteration in Bisection 11
 a: -0.00034  b:-0.00093

 -0.20346 = (-0.20376 + -0.20316)/2.0
 sum -  nocc_ = -0.00005084
 On Iteration in Bisection 12
 a: -0.00005  b:-0.00034

 -0.20331 = (-0.20346 + -0.20316)/2.0
 sum -  nocc_ = 0.00009505
 On Iteration in Bisection 13
 a: 0.00010  b:-0.00005

 -0.20338 = (-0.20346 + -0.20331)/2.0
 sum -  nocc_ = 0.00002210
 On Iteration in Bisection 14
 a: 0.00002  b:-0.00005

 -0.20342 = (-0.20346 + -0.20338)/2.0
 sum -  nocc_ = -0.00001437
 On Iteration in Bisection 15
 a: -0.00001  b:-0.00005

 -0.20340 = (-0.20342 + -0.20338)/2.0
 sum -  nocc_ = 0.00000387
 On Iteration in Bisection 16
 a: 0.00000  b:-0.00001

 -0.20341 = (-0.20342 + -0.20340)/2.0
 sum -  nocc_ = -0.00000525
 On Iteration in Bisection 17
 a: -0.00001  b:-0.00001

 -0.20341 = (-0.20341 + -0.20340)/2.0
 sum -  nocc_ = -0.00000069
 On Iteration in Bisection 18
 a: -0.00000  b:-0.00001

 -0.20340 = (-0.20341 + -0.20340)/2.0
 sum -  nocc_ = 0.00000159
 On Iteration in Bisection 19
 a: 0.00000  b:-0.00000

 -0.20340 = (-0.20341 + -0.20340)/2.0
 sum -  nocc_ = 0.00000045
 On Iteration in Bisection 20
 a: 0.00000  b:-0.00000

 -0.20340 = (-0.20341 + -0.20340)/2.0
 sum -  nocc_ = -0.00000012
 On Iteration in Bisection 21
 a: -0.00000  b:-0.00000

 -0.20340 = (-0.20340 + -0.20340)/2.0
 sum -  nocc_ = 0.00000016
 On Iteration in Bisection 22
 a: 0.00000  b:-0.00000

 -0.20340 = (-0.20340 + -0.20340)/2.0
 sum -  nocc_ = 0.00000002
 On Iteration in Bisection 23
 a: 0.00000  b:-0.00000

 -0.20340 = (-0.20340 + -0.20340)/2.0
 sum -  nocc_ = -0.00000005
 On Iteration in Bisection 24
 a: -0.00000  b:-0.00000

 -0.20340 = (-0.20340 + -0.20340)/2.0
 sum -  nocc_ = -0.00000001
 On Iteration in Bisection 25
 a: -0.00000  b:-0.00000

 -0.20340 = (-0.20340 + -0.20340)/2.0
 sum -  nocc_ = 0.00000000
 ef = -0.20340 sum = 1.00000 

 Iter: 4  T:    20000.000  val:-0.203404  sumni 0.00000
 ne = 1.0000

 iter:5  failiter:5  energy:     -1.286501868100  total:     -0.955766112731  error:     -0.002156625872
 In Bisection function HOMO = -0.420  LUMO =  2.028

 0.80420 = (-0.41962 + 2.02802)/2.0
 sum -  nocc_ = 2.81262565
 On Iteration in Bisection 0
 a: 2.81263  b:-0.49892

 0.19229 = (-0.41962 + 0.80420)/2.0
 sum -  nocc_ = 0.94546857
 On Iteration in Bisection 1
 a: 0.94547  b:-0.49892

 -0.11366 = (-0.41962 + 0.19229)/2.0
 sum -  nocc_ = 0.11125927
 On Iteration in Bisection 2
 a: 0.11126  b:-0.49892

 -0.26664 = (-0.41962 + -0.11366)/2.0
 sum -  nocc_ = -0.07005975
 On Iteration in Bisection 3
 a: -0.07006  b:-0.49892

 -0.19015 = (-0.26664 + -0.11366)/2.0
 sum -  nocc_ = 0.01286239
 On Iteration in Bisection 4
 a: 0.01286  b:-0.07006

 -0.22840 = (-0.26664 + -0.19015)/2.0
 sum -  nocc_ = -0.02493169
 On Iteration in Bisection 5
 a: -0.02493  b:-0.07006

 -0.20927 = (-0.22840 + -0.19015)/2.0
 sum -  nocc_ = -0.00581829
 On Iteration in Bisection 6
 a: -0.00582  b:-0.02493

 -0.19971 = (-0.20927 + -0.19015)/2.0
 sum -  nocc_ = 0.00348962
 On Iteration in Bisection 7
 a: 0.00349  b:-0.00582

 -0.20449 = (-0.20927 + -0.19971)/2.0
 sum -  nocc_ = -0.00116163
 On Iteration in Bisection 8
 a: -0.00116  b:-0.00582

 -0.20210 = (-0.20449 + -0.19971)/2.0
 sum -  nocc_ = 0.00116332
 On Iteration in Bisection 9
 a: 0.00116  b:-0.00116

 -0.20330 = (-0.20449 + -0.20210)/2.0
 sum -  nocc_ = 0.00000084
 On Iteration in Bisection 10
 a: 0.00000  b:-0.00116

 -0.20390 = (-0.20449 + -0.20330)/2.0
 sum -  nocc_ = -0.00058038
 On Iteration in Bisection 11
 a: -0.00058  b:-0.00116

 -0.20360 = (-0.20390 + -0.20330)/2.0
 sum -  nocc_ = -0.00028976
 On Iteration in Bisection 12
 a: -0.00029  b:-0.00058

 -0.20345 = (-0.20360 + -0.20330)/2.0
 sum -  nocc_ = -0.00014446
 On Iteration in Bisection 13
 a: -0.00014  b:-0.00029

 -0.20337 = (-0.20345 + -0.20330)/2.0
 sum -  nocc_ = -0.00007181
 On Iteration in Bisection 14
 a: -0.00007  b:-0.00014

 -0.20334 = (-0.20337 + -0.20330)/2.0
 sum -  nocc_ = -0.00003548
 On Iteration in Bisection 15
 a: -0.00004  b:-0.00007

 -0.20332 = (-0.20334 + -0.20330)/2.0
 sum -  nocc_ = -0.00001732
 On Iteration in Bisection 16
 a: -0.00002  b:-0.00004

 -0.20331 = (-0.20332 + -0.20330)/2.0
 sum -  nocc_ = -0.00000824
 On Iteration in Bisection 17
 a: -0.00001  b:-0.00002

 -0.20330 = (-0.20331 + -0.20330)/2.0
 sum -  nocc_ = -0.00000370
 On Iteration in Bisection 18
 a: -0.00000  b:-0.00001

 -0.20330 = (-0.20330 + -0.20330)/2.0
 sum -  nocc_ = -0.00000143
 On Iteration in Bisection 19
 a: -0.00000  b:-0.00000

 -0.20330 = (-0.20330 + -0.20330)/2.0
 sum -  nocc_ = -0.00000029
 On Iteration in Bisection 20
 a: -0.00000  b:-0.00000

 -0.20330 = (-0.20330 + -0.20330)/2.0
 sum -  nocc_ = 0.00000027
 On Iteration in Bisection 21
 a: 0.00000  b:-0.00000

 -0.20330 = (-0.20330 + -0.20330)/2.0
 sum -  nocc_ = -0.00000001
 ef = -0.20330 sum = 1.00000 

 Iter: 5  T:    20000.000  val:-0.203299  sumni 0.00000
 ne = 1.0000

 iter:6  failiter:6  energy:     -1.286761004162  total:     -0.956025248793  error:     -0.000259136062
 In Bisection function HOMO = -0.420  LUMO =  2.028

 0.80421 = (-0.41964 + 2.02806)/2.0
 sum -  nocc_ = 2.81259758
 On Iteration in Bisection 0
 a: 2.81260  b:-0.49892

 0.19229 = (-0.41964 + 0.80421)/2.0
 sum -  nocc_ = 0.94541761
 On Iteration in Bisection 1
 a: 0.94542  b:-0.49892

 -0.11367 = (-0.41964 + 0.19229)/2.0
 sum -  nocc_ = 0.11114784
 On Iteration in Bisection 2
 a: 0.11115  b:-0.49892

 -0.26666 = (-0.41964 + -0.11367)/2.0
 sum -  nocc_ = -0.07006887
 On Iteration in Bisection 3
 a: -0.07007  b:-0.49892

 -0.19016 = (-0.26666 + -0.11367)/2.0
 sum -  nocc_ = 0.01282350
 On Iteration in Bisection 4
 a: 0.01282  b:-0.07007

 -0.22841 = (-0.26666 + -0.19016)/2.0
 sum -  nocc_ = -0.02495214
 On Iteration in Bisection 5
 a: -0.02495  b:-0.07007

 -0.20929 = (-0.22841 + -0.19016)/2.0
 sum -  nocc_ = -0.00584686
 On Iteration in Bisection 6
 a: -0.00585  b:-0.02495

 -0.19973 = (-0.20929 + -0.19016)/2.0
 sum -  nocc_ = 0.00345620
 On Iteration in Bisection 7
 a: 0.00346  b:-0.00585

 -0.20451 = (-0.20929 + -0.19973)/2.0
 sum -  nocc_ = -0.00119256
 On Iteration in Bisection 8
 a: -0.00119  b:-0.00585

 -0.20212 = (-0.20451 + -0.19973)/2.0
 sum -  nocc_ = 0.00113116
 On Iteration in Bisection 9
 a: 0.00113  b:-0.00119

 -0.20331 = (-0.20451 + -0.20212)/2.0
 sum -  nocc_ = -0.00003070
 On Iteration in Bisection 10
 a: -0.00003  b:-0.00119

 -0.20271 = (-0.20331 + -0.20212)/2.0
 sum -  nocc_ = 0.00055021
 On Iteration in Bisection 11
 a: 0.00055  b:-0.00003

 -0.20301 = (-0.20331 + -0.20271)/2.0
 sum -  nocc_ = 0.00025976
 On Iteration in Bisection 12
 a: 0.00026  b:-0.00003

 -0.20316 = (-0.20331 + -0.20301)/2.0
 sum -  nocc_ = 0.00011453
 On Iteration in Bisection 13
 a: 0.00011  b:-0.00003

 -0.20324 = (-0.20331 + -0.20316)/2.0
 sum -  nocc_ = 0.00004192
 On Iteration in Bisection 14
 a: 0.00004  b:-0.00003

 -0.20327 = (-0.20331 + -0.20324)/2.0
 sum -  nocc_ = 0.00000561
 On Iteration in Bisection 15
 a: 0.00001  b:-0.00003

 -0.20329 = (-0.20331 + -0.20327)/2.0
 sum -  nocc_ = -0.00001254
 On Iteration in Bisection 16
 a: -0.00001  b:-0.00003

 -0.20328 = (-0.20329 + -0.20327)/2.0
 sum -  nocc_ = -0.00000347
 On Iteration in Bisection 17
 a: -0.00000  b:-0.00001

 -0.20328 = (-0.20328 + -0.20327)/2.0
 sum -  nocc_ = 0.00000107
 On Iteration in Bisection 18
 a: 0.00000  b:-0.00000

 -0.20328 = (-0.20328 + -0.20328)/2.0
 sum -  nocc_ = -0.00000120
 On Iteration in Bisection 19
 a: -0.00000  b:-0.00000

 -0.20328 = (-0.20328 + -0.20328)/2.0
 sum -  nocc_ = -0.00000006
 On Iteration in Bisection 20
 a: -0.00000  b:-0.00000

 -0.20328 = (-0.20328 + -0.20328)/2.0
 sum -  nocc_ = 0.00000050
 On Iteration in Bisection 21
 a: 0.00000  b:-0.00000

 -0.20328 = (-0.20328 + -0.20328)/2.0
 sum -  nocc_ = 0.00000022
 On Iteration in Bisection 22
 a: 0.00000  b:-0.00000

 -0.20328 = (-0.20328 + -0.20328)/2.0
 sum -  nocc_ = 0.00000008
 On Iteration in Bisection 23
 a: 0.00000  b:-0.00000

 -0.20328 = (-0.20328 + -0.20328)/2.0
 sum -  nocc_ = 0.00000001
 ef = -0.20328 sum = 1.00000 

 Iter: 6  T:    20000.000  val:-0.203280  sumni 0.00000
 ne = 1.0000

 iter:7  failiter:7  energy:     -1.286791565828  total:     -0.956055810459  error:     -0.000030561666
 In Bisection function HOMO = -0.420  LUMO =  2.028

 0.80421 = (-0.41964 + 2.02807)/2.0
 sum -  nocc_ = 2.81259471
 On Iteration in Bisection 0
 a: 2.81259  b:-0.49892

 0.19229 = (-0.41964 + 0.80421)/2.0
 sum -  nocc_ = 0.94541084
 On Iteration in Bisection 1
 a: 0.94541  b:-0.49892

 -0.11368 = (-0.41964 + 0.19229)/2.0
 sum -  nocc_ = 0.11113292
 On Iteration in Bisection 2
 a: 0.11113  b:-0.49892

 -0.26666 = (-0.41964 + -0.11368)/2.0
 sum -  nocc_ = -0.07007006
 On Iteration in Bisection 3
 a: -0.07007  b:-0.49892

 -0.19017 = (-0.26666 + -0.11368)/2.0
 sum -  nocc_ = 0.01281830
 On Iteration in Bisection 4
 a: 0.01282  b:-0.07007

 -0.22841 = (-0.26666 + -0.19017)/2.0
 sum -  nocc_ = -0.02495485
 On Iteration in Bisection 5
 a: -0.02495  b:-0.07007

 -0.20929 = (-0.22841 + -0.19017)/2.0
 sum -  nocc_ = -0.00585067
 On Iteration in Bisection 6
 a: -0.00585  b:-0.02495

 -0.19973 = (-0.20929 + -0.19017)/2.0
 sum -  nocc_ = 0.00345173
 On Iteration in Bisection 7
 a: 0.00345  b:-0.00585

 -0.20451 = (-0.20929 + -0.19973)/2.0
 sum -  nocc_ = -0.00119669
 On Iteration in Bisection 8
 a: -0.00120  b:-0.00585

 -0.20212 = (-0.20451 + -0.19973)/2.0
 sum -  nocc_ = 0.00112687
 On Iteration in Bisection 9
 a: 0.00113  b:-0.00120

 -0.20331 = (-0.20451 + -0.20212)/2.0
 sum -  nocc_ = -0.00003491
 On Iteration in Bisection 10
 a: -0.00003  b:-0.00120

 -0.20272 = (-0.20331 + -0.20212)/2.0
 sum -  nocc_ = 0.00054596
 On Iteration in Bisection 11
 a: 0.00055  b:-0.00003

 -0.20301 = (-0.20331 + -0.20272)/2.0
 sum -  nocc_ = 0.00025553
 On Iteration in Bisection 12
 a: 0.00026  b:-0.00003

 -0.20316 = (-0.20331 + -0.20301)/2.0
 sum -  nocc_ = 0.00011031
 On Iteration in Bisection 13
 a: 0.00011  b:-0.00003

 -0.20324 = (-0.20331 + -0.20316)/2.0
 sum -  nocc_ = 0.00003770
 On Iteration in Bisection 14
 a: 0.00004  b:-0.00003

 -0.20328 = (-0.20331 + -0.20324)/2.0
 sum -  nocc_ = 0.00000140
 On Iteration in Bisection 15
 a: 0.00000  b:-0.00003

 -0.20329 = (-0.20331 + -0.20328)/2.0
 sum -  nocc_ = -0.00001675
 On Iteration in Bisection 16
 a: -0.00002  b:-0.00003

 -0.20328 = (-0.20329 + -0.20328)/2.0
 sum -  nocc_ = -0.00000768
 On Iteration in Bisection 17
 a: -0.00001  b:-0.00002

 -0.20328 = (-0.20328 + -0.20328)/2.0
 sum -  nocc_ = -0.00000314
 On Iteration in Bisection 18
 a: -0.00000  b:-0.00001

 -0.20328 = (-0.20328 + -0.20328)/2.0
 sum -  nocc_ = -0.00000087
 On Iteration in Bisection 19
 a: -0.00000  b:-0.00000

 -0.20328 = (-0.20328 + -0.20328)/2.0
 sum -  nocc_ = 0.00000026
 On Iteration in Bisection 20
 a: 0.00000  b:-0.00000

 -0.20328 = (-0.20328 + -0.20328)/2.0
 sum -  nocc_ = -0.00000030
 On Iteration in Bisection 21
 a: -0.00000  b:-0.00000

 -0.20328 = (-0.20328 + -0.20328)/2.0
 sum -  nocc_ = -0.00000002
 On Iteration in Bisection 22
 a: -0.00000  b:-0.00000

 -0.20328 = (-0.20328 + -0.20328)/2.0
 sum -  nocc_ = 0.00000012
 On Iteration in Bisection 23
 a: 0.00000  b:-0.00000

 -0.20328 = (-0.20328 + -0.20328)/2.0
 sum -  nocc_ = 0.00000005
 On Iteration in Bisection 24
 a: 0.00000  b:-0.00000

 -0.20328 = (-0.20328 + -0.20328)/2.0
 sum -  nocc_ = 0.00000002
 On Iteration in Bisection 25
 a: 0.00000  b:-0.00000

 -0.20328 = (-0.20328 + -0.20328)/2.0
 sum -  nocc_ = -0.00000000
 ef = -0.20328 sum = 1.00000 

 Iter: 7  T:    20000.000  val:-0.203277  sumni 0.00000
 ne = 1.0000

 iter:8  failiter:8  energy:     -1.286795096027  total:     -0.956059340658  error:     -0.000003530199
 In Bisection function HOMO = -0.420  LUMO =  2.028

 0.80421 = (-0.41964 + 2.02807)/2.0
 sum -  nocc_ = 2.81259445
 On Iteration in Bisection 0
 a: 2.81259  b:-0.49892

 0.19229 = (-0.41964 + 0.80421)/2.0
 sum -  nocc_ = 0.94540992
 On Iteration in Bisection 1
 a: 0.94541  b:-0.49892

 -0.11368 = (-0.41964 + 0.19229)/2.0
 sum -  nocc_ = 0.11113089
 On Iteration in Bisection 2
 a: 0.11113  b:-0.49892

 -0.26666 = (-0.41964 + -0.11368)/2.0
 sum -  nocc_ = -0.07007022
 On Iteration in Bisection 3
 a: -0.07007  b:-0.49892

 -0.19017 = (-0.26666 + -0.11368)/2.0
 sum -  nocc_ = 0.01281759
 On Iteration in Bisection 4
 a: 0.01282  b:-0.07007

 -0.22841 = (-0.26666 + -0.19017)/2.0
 sum -  nocc_ = -0.02495522
 On Iteration in Bisection 5
 a: -0.02496  b:-0.07007

 -0.20929 = (-0.22841 + -0.19017)/2.0
 sum -  nocc_ = -0.00585119
 On Iteration in Bisection 6
 a: -0.00585  b:-0.02496

 -0.19973 = (-0.20929 + -0.19017)/2.0
 sum -  nocc_ = 0.00345113
 On Iteration in Bisection 7
 a: 0.00345  b:-0.00585

 -0.20451 = (-0.20929 + -0.19973)/2.0
 sum -  nocc_ = -0.00119725
 On Iteration in Bisection 8
 a: -0.00120  b:-0.00585

 -0.20212 = (-0.20451 + -0.19973)/2.0
 sum -  nocc_ = 0.00112629
 On Iteration in Bisection 9
 a: 0.00113  b:-0.00120

 -0.20331 = (-0.20451 + -0.20212)/2.0
 sum -  nocc_ = -0.00003548
 On Iteration in Bisection 10
 a: -0.00004  b:-0.00120

 -0.20272 = (-0.20331 + -0.20212)/2.0
 sum -  nocc_ = 0.00054538
 On Iteration in Bisection 11
 a: 0.00055  b:-0.00004

 -0.20301 = (-0.20331 + -0.20272)/2.0
 sum -  nocc_ = 0.00025495
 On Iteration in Bisection 12
 a: 0.00025  b:-0.00004

 -0.20316 = (-0.20331 + -0.20301)/2.0
 sum -  nocc_ = 0.00010974
 On Iteration in Bisection 13
 a: 0.00011  b:-0.00004

 -0.20324 = (-0.20331 + -0.20316)/2.0
 sum -  nocc_ = 0.00003713
 On Iteration in Bisection 14
 a: 0.00004  b:-0.00004

 -0.20328 = (-0.20331 + -0.20324)/2.0
 sum -  nocc_ = 0.00000083
 On Iteration in Bisection 15
 a: 0.00000  b:-0.00004

 -0.20329 = (-0.20331 + -0.20328)/2.0
 sum -  nocc_ = -0.00001732
 On Iteration in Bisection 16
 a: -0.00002  b:-0.00004

 -0.20328 = (-0.20329 + -0.20328)/2.0
 sum -  nocc_ = -0.00000825
 On Iteration in Bisection 17
 a: -0.00001  b:-0.00002

 -0.20328 = (-0.20328 + -0.20328)/2.0
 sum -  nocc_ = -0.00000371
 On Iteration in Bisection 18
 a: -0.00000  b:-0.00001

 -0.20328 = (-0.20328 + -0.20328)/2.0
 sum -  nocc_ = -0.00000144
 On Iteration in Bisection 19
 a: -0.00000  b:-0.00000

 -0.20328 = (-0.20328 + -0.20328)/2.0
 sum -  nocc_ = -0.00000031
 On Iteration in Bisection 20
 a: -0.00000  b:-0.00000

 -0.20328 = (-0.20328 + -0.20328)/2.0
 sum -  nocc_ = 0.00000026
 On Iteration in Bisection 21
 a: 0.00000  b:-0.00000

 -0.20328 = (-0.20328 + -0.20328)/2.0
 sum -  nocc_ = -0.00000002
 On Iteration in Bisection 22
 a: -0.00000  b:-0.00000

 -0.20328 = (-0.20328 + -0.20328)/2.0
 sum -  nocc_ = 0.00000012
 On Iteration in Bisection 23
 a: 0.00000  b:-0.00000

 -0.20328 = (-0.20328 + -0.20328)/2.0
 sum -  nocc_ = 0.00000005
 On Iteration in Bisection 24
 a: 0.00000  b:-0.00000

 -0.20328 = (-0.20328 + -0.20328)/2.0
 sum -  nocc_ = 0.00000001
 On Iteration in Bisection 25
 a: 0.00000  b:-0.00000

 -0.20328 = (-0.20328 + -0.20328)/2.0
 sum -  nocc_ = -0.00000001
 ef = -0.20328 sum = 1.00000 

 Iter: 8  T:    20000.000  val:-0.203276  sumni 0.00000
 ne = 1.0000

 iter:9  failiter:9  energy:     -1.286795501479  total:     -0.956059746111  error:     -0.000000405453
 In Bisection function HOMO = -0.420  LUMO =  2.028

 0.80421 = (-0.41964 + 2.02807)/2.0
 sum -  nocc_ = 2.81259444
 On Iteration in Bisection 0
 a: 2.81259  b:-0.49892

 0.19229 = (-0.41964 + 0.80421)/2.0
 sum -  nocc_ = 0.94540980
 On Iteration in Bisection 1
 a: 0.94541  b:-0.49892

 -0.11368 = (-0.41964 + 0.19229)/2.0
 sum -  nocc_ = 0.11113061
 On Iteration in Bisection 2
 a: 0.11113  b:-0.49892

 -0.26666 = (-0.41964 + -0.11368)/2.0
 sum -  nocc_ = -0.07007024
 On Iteration in Bisection 3
 a: -0.07007  b:-0.49892

 -0.19017 = (-0.26666 + -0.11368)/2.0
 sum -  nocc_ = 0.01281750
 On Iteration in Bisection 4
 a: 0.01282  b:-0.07007

 -0.22841 = (-0.26666 + -0.19017)/2.0
 sum -  nocc_ = -0.02495527
 On Iteration in Bisection 5
 a: -0.02496  b:-0.07007

 -0.20929 = (-0.22841 + -0.19017)/2.0
 sum -  nocc_ = -0.00585126
 On Iteration in Bisection 6
 a: -0.00585  b:-0.02496

 -0.19973 = (-0.20929 + -0.19017)/2.0
 sum -  nocc_ = 0.00345104
 On Iteration in Bisection 7
 a: 0.00345  b:-0.00585

 -0.20451 = (-0.20929 + -0.19973)/2.0
 sum -  nocc_ = -0.00119733
 On Iteration in Bisection 8
 a: -0.00120  b:-0.00585

 -0.20212 = (-0.20451 + -0.19973)/2.0
 sum -  nocc_ = 0.00112620
 On Iteration in Bisection 9
 a: 0.00113  b:-0.00120

 -0.20331 = (-0.20451 + -0.20212)/2.0
 sum -  nocc_ = -0.00003556
 On Iteration in Bisection 10
 a: -0.00004  b:-0.00120

 -0.20272 = (-0.20331 + -0.20212)/2.0
 sum -  nocc_ = 0.00054530
 On Iteration in Bisection 11
 a: 0.00055  b:-0.00004

 -0.20301 = (-0.20331 + -0.20272)/2.0
 sum -  nocc_ = 0.00025487
 On Iteration in Bisection 12
 a: 0.00025  b:-0.00004

 -0.20316 = (-0.20331 + -0.20301)/2.0
 sum -  nocc_ = 0.00010966
 On Iteration in Bisection 13
 a: 0.00011  b:-0.00004

 -0.20324 = (-0.20331 + -0.20316)/2.0
 sum -  nocc_ = 0.00003705
 On Iteration in Bisection 14
 a: 0.00004  b:-0.00004

 -0.20328 = (-0.20331 + -0.20324)/2.0
 sum -  nocc_ = 0.00000075
 On Iteration in Bisection 15
 a: 0.00000  b:-0.00004

 -0.20329 = (-0.20331 + -0.20328)/2.0
 sum -  nocc_ = -0.00001740
 On Iteration in Bisection 16
 a: -0.00002  b:-0.00004

 -0.20328 = (-0.20329 + -0.20328)/2.0
 sum -  nocc_ = -0.00000833
 On Iteration in Bisection 17
 a: -0.00001  b:-0.00002

 -0.20328 = (-0.20328 + -0.20328)/2.0
 sum -  nocc_ = -0.00000379
 On Iteration in Bisection 18
 a: -0.00000  b:-0.00001

 -0.20328 = (-0.20328 + -0.20328)/2.0
 sum -  nocc_ = -0.00000152
 On Iteration in Bisection 19
 a: -0.00000  b:-0.00000

 -0.20328 = (-0.20328 + -0.20328)/2.0
 sum -  nocc_ = -0.00000039
 On Iteration in Bisection 20
 a: -0.00000  b:-0.00000

 -0.20328 = (-0.20328 + -0.20328)/2.0
 sum -  nocc_ = 0.00000018
 On Iteration in Bisection 21
 a: 0.00000  b:-0.00000

 -0.20328 = (-0.20328 + -0.20328)/2.0
 sum -  nocc_ = -0.00000010
 On Iteration in Bisection 22
 a: -0.00000  b:-0.00000

 -0.20328 = (-0.20328 + -0.20328)/2.0
 sum -  nocc_ = 0.00000004
 On Iteration in Bisection 23
 a: 0.00000  b:-0.00000

 -0.20328 = (-0.20328 + -0.20328)/2.0
 sum -  nocc_ = -0.00000003
 On Iteration in Bisection 24
 a: -0.00000  b:-0.00000

 -0.20328 = (-0.20328 + -0.20328)/2.0
 sum -  nocc_ = 0.00000000
 ef = -0.20328 sum = 1.00000 

 Iter: 9  T:    20000.000  val:-0.203276  sumni 0.00000
 ne = 1.0000

 iter:10  failiter:10  energy:     -1.286795557188  total:     -0.956059801819  error:     -0.000000055708
 In Bisection function HOMO = -0.420  LUMO =  2.028

 0.80421 = (-0.41964 + 2.02807)/2.0
 sum -  nocc_ = 2.81259444
 On Iteration in Bisection 0
 a: 2.81259  b:-0.49892

 0.19229 = (-0.41964 + 0.80421)/2.0
 sum -  nocc_ = 0.94540978
 On Iteration in Bisection 1
 a: 0.94541  b:-0.49892

 -0.11368 = (-0.41964 + 0.19229)/2.0
 sum -  nocc_ = 0.11113058
 On Iteration in Bisection 2
 a: 0.11113  b:-0.49892

 -0.26666 = (-0.41964 + -0.11368)/2.0
 sum -  nocc_ = -0.07007024
 On Iteration in Bisection 3
 a: -0.07007  b:-0.49892

 -0.19017 = (-0.26666 + -0.11368)/2.0
 sum -  nocc_ = 0.01281748
 On Iteration in Bisection 4
 a: 0.01282  b:-0.07007

 -0.22841 = (-0.26666 + -0.19017)/2.0
 sum -  nocc_ = -0.02495528
 On Iteration in Bisection 5
 a: -0.02496  b:-0.07007

 -0.20929 = (-0.22841 + -0.19017)/2.0
 sum -  nocc_ = -0.00585127
 On Iteration in Bisection 6
 a: -0.00585  b:-0.02496

 -0.19973 = (-0.20929 + -0.19017)/2.0
 sum -  nocc_ = 0.00345103
 On Iteration in Bisection 7
 a: 0.00345  b:-0.00585

 -0.20451 = (-0.20929 + -0.19973)/2.0
 sum -  nocc_ = -0.00119734
 On Iteration in Bisection 8
 a: -0.00120  b:-0.00585

 -0.20212 = (-0.20451 + -0.19973)/2.0
 sum -  nocc_ = 0.00112619
 On Iteration in Bisection 9
 a: 0.00113  b:-0.00120

 -0.20331 = (-0.20451 + -0.20212)/2.0
 sum -  nocc_ = -0.00003557
 On Iteration in Bisection 10
 a: -0.00004  b:-0.00120

 -0.20272 = (-0.20331 + -0.20212)/2.0
 sum -  nocc_ = 0.00054529
 On Iteration in Bisection 11
 a: 0.00055  b:-0.00004

 -0.20301 = (-0.20331 + -0.20272)/2.0
 sum -  nocc_ = 0.00025486
 On Iteration in Bisection 12
 a: 0.00025  b:-0.00004

 -0.20316 = (-0.20331 + -0.20301)/2.0
 sum -  nocc_ = 0.00010965
 On Iteration in Bisection 13
 a: 0.00011  b:-0.00004

 -0.20324 = (-0.20331 + -0.20316)/2.0
 sum -  nocc_ = 0.00003704
 On Iteration in Bisection 14
 a: 0.00004  b:-0.00004

 -0.20328 = (-0.20331 + -0.20324)/2.0
 sum -  nocc_ = 0.00000074
 On Iteration in Bisection 15
 a: 0.00000  b:-0.00004

 -0.20329 = (-0.20331 + -0.20328)/2.0
 sum -  nocc_ = -0.00001741
 On Iteration in Bisection 16
 a: -0.00002  b:-0.00004

 -0.20328 = (-0.20329 + -0.20328)/2.0
 sum -  nocc_ = -0.00000834
 On Iteration in Bisection 17
 a: -0.00001  b:-0.00002

 -0.20328 = (-0.20328 + -0.20328)/2.0
 sum -  nocc_ = -0.00000380
 On Iteration in Bisection 18
 a: -0.00000  b:-0.00001

 -0.20328 = (-0.20328 + -0.20328)/2.0
 sum -  nocc_ = -0.00000153
 On Iteration in Bisection 19
 a: -0.00000  b:-0.00000

 -0.20328 = (-0.20328 + -0.20328)/2.0
 sum -  nocc_ = -0.00000040
 On Iteration in Bisection 20
 a: -0.00000  b:-0.00000

 -0.20328 = (-0.20328 + -0.20328)/2.0
 sum -  nocc_ = 0.00000017
 On Iteration in Bisection 21
 a: 0.00000  b:-0.00000

 -0.20328 = (-0.20328 + -0.20328)/2.0
 sum -  nocc_ = -0.00000011
 On Iteration in Bisection 22
 a: -0.00000  b:-0.00000

 -0.20328 = (-0.20328 + -0.20328)/2.0
 sum -  nocc_ = 0.00000003
 On Iteration in Bisection 23
 a: 0.00000  b:-0.00000

 -0.20328 = (-0.20328 + -0.20328)/2.0
 sum -  nocc_ = -0.00000004
 On Iteration in Bisection 24
 a: -0.00000  b:-0.00000

 -0.20328 = (-0.20328 + -0.20328)/2.0
 sum -  nocc_ = -0.00000001
 ef = -0.20328 sum = 1.00000 

 Iter: 10  T:    20000.000  val:-0.203276  sumni 0.00000
 ne = 1.0000

 iter:11  failiter:11  energy:     -1.286795545174  total:     -0.956059789806  error:      0.000000012013
 In Bisection function HOMO = -0.420  LUMO =  2.028

 0.80421 = (-0.41964 + 2.02807)/2.0
 sum -  nocc_ = 2.81259444
 On Iteration in Bisection 0
 a: 2.81259  b:-0.49892

 0.19229 = (-0.41964 + 0.80421)/2.0
 sum -  nocc_ = 0.94540978
 On Iteration in Bisection 1
 a: 0.94541  b:-0.49892

 -0.11368 = (-0.41964 + 0.19229)/2.0
 sum -  nocc_ = 0.11113057
 On Iteration in Bisection 2
 a: 0.11113  b:-0.49892

 -0.26666 = (-0.41964 + -0.11368)/2.0
 sum -  nocc_ = -0.07007024
 On Iteration in Bisection 3
 a: -0.07007  b:-0.49892

 -0.19017 = (-0.26666 + -0.11368)/2.0
 sum -  nocc_ = 0.01281748
 On Iteration in Bisection 4
 a: 0.01282  b:-0.07007

 -0.22841 = (-0.26666 + -0.19017)/2.0
 sum -  nocc_ = -0.02495528
 On Iteration in Bisection 5
 a: -0.02496  b:-0.07007

 -0.20929 = (-0.22841 + -0.19017)/2.0
 sum -  nocc_ = -0.00585127
 On Iteration in Bisection 6
 a: -0.00585  b:-0.02496

 -0.19973 = (-0.20929 + -0.19017)/2.0
 sum -  nocc_ = 0.00345103
 On Iteration in Bisection 7
 a: 0.00345  b:-0.00585

 -0.20451 = (-0.20929 + -0.19973)/2.0
 sum -  nocc_ = -0.00119734
 On Iteration in Bisection 8
 a: -0.00120  b:-0.00585

 -0.20212 = (-0.20451 + -0.19973)/2.0
 sum -  nocc_ = 0.00112619
 On Iteration in Bisection 9
 a: 0.00113  b:-0.00120

 -0.20331 = (-0.20451 + -0.20212)/2.0
 sum -  nocc_ = -0.00003557
 On Iteration in Bisection 10
 a: -0.00004  b:-0.00120

 -0.20272 = (-0.20331 + -0.20212)/2.0
 sum -  nocc_ = 0.00054529
 On Iteration in Bisection 11
 a: 0.00055  b:-0.00004

 -0.20301 = (-0.20331 + -0.20272)/2.0
 sum -  nocc_ = 0.00025486
 On Iteration in Bisection 12
 a: 0.00025  b:-0.00004

 -0.20316 = (-0.20331 + -0.20301)/2.0
 sum -  nocc_ = 0.00010965
 On Iteration in Bisection 13
 a: 0.00011  b:-0.00004

 -0.20324 = (-0.20331 + -0.20316)/2.0
 sum -  nocc_ = 0.00003704
 On Iteration in Bisection 14
 a: 0.00004  b:-0.00004

 -0.20328 = (-0.20331 + -0.20324)/2.0
 sum -  nocc_ = 0.00000074
 On Iteration in Bisection 15
 a: 0.00000  b:-0.00004

 -0.20329 = (-0.20331 + -0.20328)/2.0
 sum -  nocc_ = -0.00001742
 On Iteration in Bisection 16
 a: -0.00002  b:-0.00004

 -0.20328 = (-0.20329 + -0.20328)/2.0
 sum -  nocc_ = -0.00000834
 On Iteration in Bisection 17
 a: -0.00001  b:-0.00002

 -0.20328 = (-0.20328 + -0.20328)/2.0
 sum -  nocc_ = -0.00000380
 On Iteration in Bisection 18
 a: -0.00000  b:-0.00001

 -0.20328 = (-0.20328 + -0.20328)/2.0
 sum -  nocc_ = -0.00000153
 On Iteration in Bisection 19
 a: -0.00000  b:-0.00000

 -0.20328 = (-0.20328 + -0.20328)/2.0
 sum -  nocc_ = -0.00000040
 On Iteration in Bisection 20
 a: -0.00000  b:-0.00000

 -0.20328 = (-0.20328 + -0.20328)/2.0
 sum -  nocc_ = 0.00000017
 On Iteration in Bisection 21
 a: 0.00000  b:-0.00000

 -0.20328 = (-0.20328 + -0.20328)/2.0
 sum -  nocc_ = -0.00000012
 On Iteration in Bisection 22
 a: -0.00000  b:-0.00000

 -0.20328 = (-0.20328 + -0.20328)/2.0
 sum -  nocc_ = 0.00000003
 On Iteration in Bisection 23
 a: 0.00000  b:-0.00000

 -0.20328 = (-0.20328 + -0.20328)/2.0
 sum -  nocc_ = -0.00000004
 On Iteration in Bisection 24
 a: -0.00000  b:-0.00000

 -0.20328 = (-0.20328 + -0.20328)/2.0
 sum -  nocc_ = -0.00000001
 ef = -0.20328 sum = 1.00000 

 Iter: 11  T:    20000.000  val:-0.203276  sumni 0.00000
 ne = 1.0000

 iter:12  failiter:12  energy:     -1.286795550012  total:     -0.956059794643  error:     -0.000000004837
 In Bisection function HOMO = -0.420  LUMO =  2.028

 0.80421 = (-0.41964 + 2.02807)/2.0
 sum -  nocc_ = 2.81259444
 On Iteration in Bisection 0
 a: 2.81259  b:-0.49892

 0.19229 = (-0.41964 + 0.80421)/2.0
 sum -  nocc_ = 0.94540978
 On Iteration in Bisection 1
 a: 0.94541  b:-0.49892

 -0.11368 = (-0.41964 + 0.19229)/2.0
 sum -  nocc_ = 0.11113057
 On Iteration in Bisection 2
 a: 0.11113  b:-0.49892

 -0.26666 = (-0.41964 + -0.11368)/2.0
 sum -  nocc_ = -0.07007024
 On Iteration in Bisection 3
 a: -0.07007  b:-0.49892

 -0.19017 = (-0.26666 + -0.11368)/2.0
 sum -  nocc_ = 0.01281748
 On Iteration in Bisection 4
 a: 0.01282  b:-0.07007

 -0.22841 = (-0.26666 + -0.19017)/2.0
 sum -  nocc_ = -0.02495528
 On Iteration in Bisection 5
 a: -0.02496  b:-0.07007

 -0.20929 = (-0.22841 + -0.19017)/2.0
 sum -  nocc_ = -0.00585127
 On Iteration in Bisection 6
 a: -0.00585  b:-0.02496

 -0.19973 = (-0.20929 + -0.19017)/2.0
 sum -  nocc_ = 0.00345103
 On Iteration in Bisection 7
 a: 0.00345  b:-0.00585

 -0.20451 = (-0.20929 + -0.19973)/2.0
 sum -  nocc_ = -0.00119734
 On Iteration in Bisection 8
 a: -0.00120  b:-0.00585

 -0.20212 = (-0.20451 + -0.19973)/2.0
 sum -  nocc_ = 0.00112619
 On Iteration in Bisection 9
 a: 0.00113  b:-0.00120

 -0.20331 = (-0.20451 + -0.20212)/2.0
 sum -  nocc_ = -0.00003557
 On Iteration in Bisection 10
 a: -0.00004  b:-0.00120

 -0.20272 = (-0.20331 + -0.20212)/2.0
 sum -  nocc_ = 0.00054529
 On Iteration in Bisection 11
 a: 0.00055  b:-0.00004

 -0.20301 = (-0.20331 + -0.20272)/2.0
 sum -  nocc_ = 0.00025486
 On Iteration in Bisection 12
 a: 0.00025  b:-0.00004

 -0.20316 = (-0.20331 + -0.20301)/2.0
 sum -  nocc_ = 0.00010965
 On Iteration in Bisection 13
 a: 0.00011  b:-0.00004

 -0.20324 = (-0.20331 + -0.20316)/2.0
 sum -  nocc_ = 0.00003704
 On Iteration in Bisection 14
 a: 0.00004  b:-0.00004

 -0.20328 = (-0.20331 + -0.20324)/2.0
 sum -  nocc_ = 0.00000074
 On Iteration in Bisection 15
 a: 0.00000  b:-0.00004

 -0.20329 = (-0.20331 + -0.20328)/2.0
 sum -  nocc_ = -0.00001742
 On Iteration in Bisection 16
 a: -0.00002  b:-0.00004

 -0.20328 = (-0.20329 + -0.20328)/2.0
 sum -  nocc_ = -0.00000834
 On Iteration in Bisection 17
 a: -0.00001  b:-0.00002

 -0.20328 = (-0.20328 + -0.20328)/2.0
 sum -  nocc_ = -0.00000380
 On Iteration in Bisection 18
 a: -0.00000  b:-0.00001

 -0.20328 = (-0.20328 + -0.20328)/2.0
 sum -  nocc_ = -0.00000153
 On Iteration in Bisection 19
 a: -0.00000  b:-0.00000

 -0.20328 = (-0.20328 + -0.20328)/2.0
 sum -  nocc_ = -0.00000040
 On Iteration in Bisection 20
 a: -0.00000  b:-0.00000

 -0.20328 = (-0.20328 + -0.20328)/2.0
 sum -  nocc_ = 0.00000017
 On Iteration in Bisection 21
 a: 0.00000  b:-0.00000

 -0.20328 = (-0.20328 + -0.20328)/2.0
 sum -  nocc_ = -0.00000012
 On Iteration in Bisection 22
 a: -0.00000  b:-0.00000

 -0.20328 = (-0.20328 + -0.20328)/2.0
 sum -  nocc_ = 0.00000003
 On Iteration in Bisection 23
 a: 0.00000  b:-0.00000

 -0.20328 = (-0.20328 + -0.20328)/2.0
 sum -  nocc_ = -0.00000004
 On Iteration in Bisection 24
 a: -0.00000  b:-0.00000

 -0.20328 = (-0.20328 + -0.20328)/2.0
 sum -  nocc_ = -0.00000001
 ef = -0.20328 sum = 1.00000 

 Iter: 12  T:    20000.000  val:-0.203276  sumni 0.00000
 ne = 1.0000

 iter:13  failiter:13  energy:     -1.286795550747  total:     -0.956059795379  error:     -0.000000000736
 In Bisection function HOMO = -0.420  LUMO =  2.028

 0.80421 = (-0.41964 + 2.02807)/2.0
 sum -  nocc_ = 2.81259444
 On Iteration in Bisection 0
 a: 2.81259  b:-0.49892

 0.19229 = (-0.41964 + 0.80421)/2.0
 sum -  nocc_ = 0.94540978
 On Iteration in Bisection 1
 a: 0.94541  b:-0.49892

 -0.11368 = (-0.41964 + 0.19229)/2.0
 sum -  nocc_ = 0.11113057
 On Iteration in Bisection 2
 a: 0.11113  b:-0.49892

 -0.26666 = (-0.41964 + -0.11368)/2.0
 sum -  nocc_ = -0.07007024
 On Iteration in Bisection 3
 a: -0.07007  b:-0.49892

 -0.19017 = (-0.26666 + -0.11368)/2.0
 sum -  nocc_ = 0.01281748
 On Iteration in Bisection 4
 a: 0.01282  b:-0.07007

 -0.22841 = (-0.26666 + -0.19017)/2.0
 sum -  nocc_ = -0.02495528
 On Iteration in Bisection 5
 a: -0.02496  b:-0.07007

 -0.20929 = (-0.22841 + -0.19017)/2.0
 sum -  nocc_ = -0.00585127
 On Iteration in Bisection 6
 a: -0.00585  b:-0.02496

 -0.19973 = (-0.20929 + -0.19017)/2.0
 sum -  nocc_ = 0.00345103
 On Iteration in Bisection 7
 a: 0.00345  b:-0.00585

 -0.20451 = (-0.20929 + -0.19973)/2.0
 sum -  nocc_ = -0.00119734
 On Iteration in Bisection 8
 a: -0.00120  b:-0.00585

 -0.20212 = (-0.20451 + -0.19973)/2.0
 sum -  nocc_ = 0.00112619
 On Iteration in Bisection 9
 a: 0.00113  b:-0.00120

 -0.20331 = (-0.20451 + -0.20212)/2.0
 sum -  nocc_ = -0.00003557
 On Iteration in Bisection 10
 a: -0.00004  b:-0.00120

 -0.20272 = (-0.20331 + -0.20212)/2.0
 sum -  nocc_ = 0.00054529
 On Iteration in Bisection 11
 a: 0.00055  b:-0.00004

 -0.20301 = (-0.20331 + -0.20272)/2.0
 sum -  nocc_ = 0.00025486
 On Iteration in Bisection 12
 a: 0.00025  b:-0.00004

 -0.20316 = (-0.20331 + -0.20301)/2.0
 sum -  nocc_ = 0.00010965
 On Iteration in Bisection 13
 a: 0.00011  b:-0.00004

 -0.20324 = (-0.20331 + -0.20316)/2.0
 sum -  nocc_ = 0.00003704
 On Iteration in Bisection 14
 a: 0.00004  b:-0.00004

 -0.20328 = (-0.20331 + -0.20324)/2.0
 sum -  nocc_ = 0.00000074
 On Iteration in Bisection 15
 a: 0.00000  b:-0.00004

 -0.20329 = (-0.20331 + -0.20328)/2.0
 sum -  nocc_ = -0.00001742
 On Iteration in Bisection 16
 a: -0.00002  b:-0.00004

 -0.20328 = (-0.20329 + -0.20328)/2.0
 sum -  nocc_ = -0.00000834
 On Iteration in Bisection 17
 a: -0.00001  b:-0.00002

 -0.20328 = (-0.20328 + -0.20328)/2.0
 sum -  nocc_ = -0.00000380
 On Iteration in Bisection 18
 a: -0.00000  b:-0.00001

 -0.20328 = (-0.20328 + -0.20328)/2.0
 sum -  nocc_ = -0.00000153
 On Iteration in Bisection 19
 a: -0.00000  b:-0.00000

 -0.20328 = (-0.20328 + -0.20328)/2.0
 sum -  nocc_ = -0.00000040
 On Iteration in Bisection 20
 a: -0.00000  b:-0.00000

 -0.20328 = (-0.20328 + -0.20328)/2.0
 sum -  nocc_ = 0.00000017
 On Iteration in Bisection 21
 a: 0.00000  b:-0.00000

 -0.20328 = (-0.20328 + -0.20328)/2.0
 sum -  nocc_ = -0.00000012
 On Iteration in Bisection 22
 a: -0.00000  b:-0.00000

 -0.20328 = (-0.20328 + -0.20328)/2.0
 sum -  nocc_ = 0.00000003
 On Iteration in Bisection 23
 a: 0.00000  b:-0.00000

 -0.20328 = (-0.20328 + -0.20328)/2.0
 sum -  nocc_ = -0.00000004
 On Iteration in Bisection 24
 a: -0.00000  b:-0.00000

 -0.20328 = (-0.20328 + -0.20328)/2.0
 sum -  nocc_ = -0.00000001
 ef = -0.20328 sum = 1.00000 

 Iter: 13  T:    20000.000  val:-0.203276  sumni 0.00000
 ne = 1.0000

 iter:14  failiter:14  energy:     -1.286795550829  total:     -0.956059795460  error:     -0.000000000082
 In Bisection function HOMO = -0.420  LUMO =  2.028

 0.80421 = (-0.41964 + 2.02807)/2.0
 sum -  nocc_ = 2.81259444
 On Iteration in Bisection 0
 a: 2.81259  b:-0.49892

 0.19229 = (-0.41964 + 0.80421)/2.0
 sum -  nocc_ = 0.94540978
 On Iteration in Bisection 1
 a: 0.94541  b:-0.49892

 -0.11368 = (-0.41964 + 0.19229)/2.0
 sum -  nocc_ = 0.11113057
 On Iteration in Bisection 2
 a: 0.11113  b:-0.49892

 -0.26666 = (-0.41964 + -0.11368)/2.0
 sum -  nocc_ = -0.07007024
 On Iteration in Bisection 3
 a: -0.07007  b:-0.49892

 -0.19017 = (-0.26666 + -0.11368)/2.0
 sum -  nocc_ = 0.01281748
 On Iteration in Bisection 4
 a: 0.01282  b:-0.07007

 -0.22841 = (-0.26666 + -0.19017)/2.0
 sum -  nocc_ = -0.02495528
 On Iteration in Bisection 5
 a: -0.02496  b:-0.07007

 -0.20929 = (-0.22841 + -0.19017)/2.0
 sum -  nocc_ = -0.00585127
 On Iteration in Bisection 6
 a: -0.00585  b:-0.02496

 -0.19973 = (-0.20929 + -0.19017)/2.0
 sum -  nocc_ = 0.00345103
 On Iteration in Bisection 7
 a: 0.00345  b:-0.00585

 -0.20451 = (-0.20929 + -0.19973)/2.0
 sum -  nocc_ = -0.00119734
 On Iteration in Bisection 8
 a: -0.00120  b:-0.00585

 -0.20212 = (-0.20451 + -0.19973)/2.0
 sum -  nocc_ = 0.00112619
 On Iteration in Bisection 9
 a: 0.00113  b:-0.00120

 -0.20331 = (-0.20451 + -0.20212)/2.0
 sum -  nocc_ = -0.00003557
 On Iteration in Bisection 10
 a: -0.00004  b:-0.00120

 -0.20272 = (-0.20331 + -0.20212)/2.0
 sum -  nocc_ = 0.00054529
 On Iteration in Bisection 11
 a: 0.00055  b:-0.00004

 -0.20301 = (-0.20331 + -0.20272)/2.0
 sum -  nocc_ = 0.00025486
 On Iteration in Bisection 12
 a: 0.00025  b:-0.00004

 -0.20316 = (-0.20331 + -0.20301)/2.0
 sum -  nocc_ = 0.00010965
 On Iteration in Bisection 13
 a: 0.00011  b:-0.00004

 -0.20324 = (-0.20331 + -0.20316)/2.0
 sum -  nocc_ = 0.00003704
 On Iteration in Bisection 14
 a: 0.00004  b:-0.00004

 -0.20328 = (-0.20331 + -0.20324)/2.0
 sum -  nocc_ = 0.00000074
 On Iteration in Bisection 15
 a: 0.00000  b:-0.00004

 -0.20329 = (-0.20331 + -0.20328)/2.0
 sum -  nocc_ = -0.00001742
 On Iteration in Bisection 16
 a: -0.00002  b:-0.00004

 -0.20328 = (-0.20329 + -0.20328)/2.0
 sum -  nocc_ = -0.00000834
 On Iteration in Bisection 17
 a: -0.00001  b:-0.00002

 -0.20328 = (-0.20328 + -0.20328)/2.0
 sum -  nocc_ = -0.00000380
 On Iteration in Bisection 18
 a: -0.00000  b:-0.00001

 -0.20328 = (-0.20328 + -0.20328)/2.0
 sum -  nocc_ = -0.00000153
 On Iteration in Bisection 19
 a: -0.00000  b:-0.00000

 -0.20328 = (-0.20328 + -0.20328)/2.0
 sum -  nocc_ = -0.00000040
 On Iteration in Bisection 20
 a: -0.00000  b:-0.00000

 -0.20328 = (-0.20328 + -0.20328)/2.0
 sum -  nocc_ = 0.00000017
 On Iteration in Bisection 21
 a: 0.00000  b:-0.00000

 -0.20328 = (-0.20328 + -0.20328)/2.0
 sum -  nocc_ = -0.00000012
 On Iteration in Bisection 22
 a: -0.00000  b:-0.00000

 -0.20328 = (-0.20328 + -0.20328)/2.0
 sum -  nocc_ = 0.00000003
 On Iteration in Bisection 23
 a: 0.00000  b:-0.00000

 -0.20328 = (-0.20328 + -0.20328)/2.0
 sum -  nocc_ = -0.00000004
 On Iteration in Bisection 24
 a: -0.00000  b:-0.00000

 -0.20328 = (-0.20328 + -0.20328)/2.0
 sum -  nocc_ = -0.00000001
 ef = -0.20328 sum = 1.00000 

 Iter: 14  T:    20000.000  val:-0.203276  sumni 0.00000
 ne = 1.0000

 iter:15  failiter:15  energy:     -1.286795550837  total:     -0.956059795468  error:     -0.000000000007
 In Bisection function HOMO = -0.420  LUMO =  2.028

 0.80421 = (-0.41964 + 2.02807)/2.0
 sum -  nocc_ = 2.81259444
 On Iteration in Bisection 0
 a: 2.81259  b:-0.49892

 0.19229 = (-0.41964 + 0.80421)/2.0
 sum -  nocc_ = 0.94540978
 On Iteration in Bisection 1
 a: 0.94541  b:-0.49892

 -0.11368 = (-0.41964 + 0.19229)/2.0
 sum -  nocc_ = 0.11113057
 On Iteration in Bisection 2
 a: 0.11113  b:-0.49892

 -0.26666 = (-0.41964 + -0.11368)/2.0
 sum -  nocc_ = -0.07007024
 On Iteration in Bisection 3
 a: -0.07007  b:-0.49892

 -0.19017 = (-0.26666 + -0.11368)/2.0
 sum -  nocc_ = 0.01281748
 On Iteration in Bisection 4
 a: 0.01282  b:-0.07007

 -0.22841 = (-0.26666 + -0.19017)/2.0
 sum -  nocc_ = -0.02495528
 On Iteration in Bisection 5
 a: -0.02496  b:-0.07007

 -0.20929 = (-0.22841 + -0.19017)/2.0
 sum -  nocc_ = -0.00585127
 On Iteration in Bisection 6
 a: -0.00585  b:-0.02496

 -0.19973 = (-0.20929 + -0.19017)/2.0
 sum -  nocc_ = 0.00345103
 On Iteration in Bisection 7
 a: 0.00345  b:-0.00585

 -0.20451 = (-0.20929 + -0.19973)/2.0
 sum -  nocc_ = -0.00119734
 On Iteration in Bisection 8
 a: -0.00120  b:-0.00585

 -0.20212 = (-0.20451 + -0.19973)/2.0
 sum -  nocc_ = 0.00112619
 On Iteration in Bisection 9
 a: 0.00113  b:-0.00120

 -0.20331 = (-0.20451 + -0.20212)/2.0
 sum -  nocc_ = -0.00003557
 On Iteration in Bisection 10
 a: -0.00004  b:-0.00120

 -0.20272 = (-0.20331 + -0.20212)/2.0
 sum -  nocc_ = 0.00054529
 On Iteration in Bisection 11
 a: 0.00055  b:-0.00004

 -0.20301 = (-0.20331 + -0.20272)/2.0
 sum -  nocc_ = 0.00025486
 On Iteration in Bisection 12
 a: 0.00025  b:-0.00004

 -0.20316 = (-0.20331 + -0.20301)/2.0
 sum -  nocc_ = 0.00010965
 On Iteration in Bisection 13
 a: 0.00011  b:-0.00004

 -0.20324 = (-0.20331 + -0.20316)/2.0
 sum -  nocc_ = 0.00003704
 On Iteration in Bisection 14
 a: 0.00004  b:-0.00004

 -0.20328 = (-0.20331 + -0.20324)/2.0
 sum -  nocc_ = 0.00000074
 On Iteration in Bisection 15
 a: 0.00000  b:-0.00004

 -0.20329 = (-0.20331 + -0.20328)/2.0
 sum -  nocc_ = -0.00001742
 On Iteration in Bisection 16
 a: -0.00002  b:-0.00004

 -0.20328 = (-0.20329 + -0.20328)/2.0
 sum -  nocc_ = -0.00000834
 On Iteration in Bisection 17
 a: -0.00001  b:-0.00002

 -0.20328 = (-0.20328 + -0.20328)/2.0
 sum -  nocc_ = -0.00000380
 On Iteration in Bisection 18
 a: -0.00000  b:-0.00001

 -0.20328 = (-0.20328 + -0.20328)/2.0
 sum -  nocc_ = -0.00000153
 On Iteration in Bisection 19
 a: -0.00000  b:-0.00000

 -0.20328 = (-0.20328 + -0.20328)/2.0
 sum -  nocc_ = -0.00000040
 On Iteration in Bisection 20
 a: -0.00000  b:-0.00000

 -0.20328 = (-0.20328 + -0.20328)/2.0
 sum -  nocc_ = 0.00000017
 On Iteration in Bisection 21
 a: 0.00000  b:-0.00000

 -0.20328 = (-0.20328 + -0.20328)/2.0
 sum -  nocc_ = -0.00000012
 On Iteration in Bisection 22
 a: -0.00000  b:-0.00000

 -0.20328 = (-0.20328 + -0.20328)/2.0
 sum -  nocc_ = 0.00000003
 On Iteration in Bisection 23
 a: 0.00000  b:-0.00000

 -0.20328 = (-0.20328 + -0.20328)/2.0
 sum -  nocc_ = -0.00000004
 On Iteration in Bisection 24
 a: -0.00000  b:-0.00000

 -0.20328 = (-0.20328 + -0.20328)/2.0
 sum -  nocc_ = -0.00000001
 ef = -0.20328 sum = 1.00000 

 Iter: 15  T:    20000.000  val:-0.203276  sumni 0.00000
 ne = 1.0000

 iter:16  failiter:16  energy:     -1.286795550837  total:     -0.956059795468  error:     -0.000000000000
 FTHFEnergy =    -0.956060
 FD_dis[0] = 0.96820972 with -0.419638 eig value
 FD_dis[1] = 0.03178789 with 0.013091 eig value
 FD_dis[2] = 0.00000125 with 0.657747 eig value
 FD_dis[3] = 0.00000113 with 0.663876 eig value
 FD_dis[4] = 0.00000000 with 1.252808 eig value
 FD_dis[5] = 0.00000000 with 1.401217 eig value
 FD_dis[6] = 0.00000000 with 1.401217 eig value
 FD_dis[7] = 0.00000000 with 1.580119 eig value
 FD_dis[8] = 0.00000000 with 1.580119 eig value
 FD_dis[9] = 0.00000000 with 2.028067 eig value
*** PSI4 exiting successfully. Buy a developer a beer!
