    -----------------------------------------------------------------------
          PSI4: An Open-Source Ab Initio Electronic Structure Package
                              PSI 4.0 Driver

               Git: Rev {master} 556e8139d3cfa1f96ccffe2cdf22cc56a185d2b2

    J. M. Turney, A. C. Simmonett, R. M. Parrish, E. G. Hohenstein,
    F. A. Evangelista, J. T. Fermann, B. J. Mintz, L. A. Burns, J. J. Wilke,
    M. L. Abrams, N. J. Russ, M. L. Leininger, C. L. Janssen, E. T. Seidl,
    W. D. Allen, H. F. Schaefer, R. A. King, E. F. Valeev, C. D. Sherrill,
    and T. D. Crawford, WIREs Comput. Mol. Sci. 2, 556-565 (2012)
    (doi: 10.1002/wcms.93)

                         Additional Contributions by
    A. E. DePrince, M. Saitow, U. Bozkaya, A. Yu. Sokolov
    -----------------------------------------------------------------------

    Process ID:  11943
    PSI4DATADIR: /Users/kevinhannon/Programs/psi4cmake/psi4/lib
    Memory level set to 256.000 MB

  ==> Input File <==

--------------------------------------------------------------------------

# PYTHONPATH must include directory above plugin directory.
#     Define either externally or here, then import plugin.
sys.path.insert(0, '/Users/kevinhannon/Programs/Quantum_Programs/Quantum-Programs/GS/')
import scf

molecule {
0 1
H
H 1 1.80000
symmetry c1
units angstrom
}


set {
  basis cc-pvdz
  reference rhf
  scf_type  pk
}

set scf {
  DO_FTHF true
  MAX_ITER 130
  MAX_TEMP 100
  TEMP_INCREMENT 0
  bisect  true
  bisect_iter  40
}
energy('rhf')

energy('scf')


--------------------------------------------------------------------------

*** tstart() called on Kevins-MacBook-Pro.local
*** at Fri Apr 10 18:02:10 2015

/Users/kevinhannon/Programs/Quantum_Programs/Quantum-Programs/GS/scf/scf.so loaded.

*** tstart() called on Kevins-MacBook-Pro.local
*** at Fri Apr 10 18:02:10 2015


         ---------------------------------------------------------
                                   SCF
            by Justin Turney, Rob Parrish, and Andy Simmonett
                              RHF Reference
                        1 Threads,    256 MiB Core
         ---------------------------------------------------------

  ==> Geometry <==

    Molecular point group: c1
    Full point group: D_inf_h

    Geometry (in Angstrom), charge = 0, multiplicity = 1:

       Center              X                  Y                   Z       
    ------------   -----------------  -----------------  -----------------
           H          0.000000000000     0.000000000000    -0.900000000000
           H          0.000000000000     0.000000000000     0.900000000000

  Running in c1 symmetry.

  Rotational constants: A = ************  B =     10.32515  C =     10.32515 [cm^-1]
  Rotational constants: A = ************  B = 309540.18687  C = 309540.18687 [MHz]
  Nuclear repulsion =    0.293987338105556

  Charge       = 0
  Multiplicity = 1
  Electrons    = 2
  Nalpha       = 1
  Nbeta        = 1

  ==> Algorithm <==

  SCF Algorithm Type is PK.
  DIIS enabled.
  MOM disabled.
  Fractional occupation disabled.
  Guess Type is CORE.
  Energy threshold   = 1.00e-06
  Density threshold  = 1.00e-06
  Integral threshold = 0.00e+00

  ==> Primary Basis <==

  Basis Set: CC-PVDZ
    Number of shells: 6
    Number of basis function: 10
    Number of Cartesian functions: 10
    Spherical Harmonics?: true
    Max angular momentum: 1

  ==> Pre-Iterations <==

   -------------------------------------------------------
    Irrep   Nso     Nmo     Nalpha   Nbeta   Ndocc  Nsocc
   -------------------------------------------------------
     A         10      10       0       0       0       0
   -------------------------------------------------------
    Total      10      10       1       1       1       0
   -------------------------------------------------------

  Starting with a DF guess...

 OEINTS: Overlap, kinetic, potential, dipole, and quadrupole integrals
         stored in file 35.

  ==> Integral Setup <==

  ==> DFJK: Density-Fitted J/K Matrices <==

    J tasked:                  Yes
    K tasked:                  Yes
    wK tasked:                  No
    OpenMP threads:              1
    Integrals threads:           1
    Memory (MB):               183
    Algorithm:                Core
    Integral Cache:           NONE
    Schwarz Cutoff:          1E-12
    Fitting Condition:       1E-12

   => Auxiliary Basis Set <=

  Basis Set: 
    Number of shells: 18
    Number of basis function: 46
    Number of Cartesian functions: 50
    Spherical Harmonics?: true
    Max angular momentum: 2

  Minimum eigenvalue in the overlap matrix is 2.0189459176E-01.
  Using Symmetric Orthogonalization.
  SCF Guess: Core (One-Electron) Hamiltonian.

  ==> Iterations <==

                           Total Energy        Delta E     RMS |[F,P]|

   @DF-RHF iter   1:    -0.92680566910900   -9.26806e-01   1.51261e-02 
   @DF-RHF iter   2:    -0.95020794771173   -2.34023e-02   2.59626e-03 DIIS
   @DF-RHF iter   3:    -0.95094537072735   -7.37423e-04   8.95624e-05 DIIS
   @DF-RHF iter   4:    -0.95094606636845   -6.95641e-07   5.53276e-07 DIIS

  DF guess converged.

  ==> Integral Setup <==

 MINTS: Wrapper to libmints.
   by Justin Turney

   Calculation information:
      Number of atoms:                   2
      Number of AO shells:               6
      Number of SO shells:               6
      Number of primitives:             10
      Number of atomic orbitals:        10
      Number of basis functions:        10

      Number of irreps:                  1
      Integral cutoff                 0.00e+00
      Number of functions per irrep: [  10 ]

 OEINTS: Overlap, kinetic, potential, dipole, and quadrupole integrals
         stored in file 35.

      Computing two-electron integrals...done
      Computed 512 non-zero two-electron integrals.
        Stored in file 33.

	Batch   1 pq = [       0,      55] index = [             0,1540]
  ==> DiskJK: Disk-Based J/K Matrices <==

    J tasked:                  Yes
    K tasked:                  Yes
    wK tasked:                  No
    Memory (MB):               183
    Schwarz Cutoff:          1E-12

   @RHF iter   5:    -0.95093935689197    6.70948e-06   1.75338e-06 DIIS
   @RHF iter   6:    -0.95093935722217   -3.30203e-10   3.17617e-07 DIIS

  ==> Post-Iterations <==

    Orbital Energies (a.u.)
    -----------------------

    Doubly Occupied:                                                      

       1A     -0.404465  

    Virtual:                                                              

       2A     -0.009150     3A      0.655217     4A      0.675752  
       5A      1.276283     6A      1.435497     7A      1.435497  
       8A      1.532930     9A      1.532930    10A      1.850442  

    Final Occupation by Irrep:
              A 
    DOCC [     1 ]

  Energy converged.

  @RHF Final Energy:    -0.95093935722217

   => Energetics <=

    Nuclear Repulsion Energy =              0.2939873381055556
    One-Electron Energy =                  -1.6809226436985485
    Two-Electron Energy =                   0.4359959483708211
    DFT Exchange-Correlation Energy =       0.0000000000000000
    Empirical Dispersion Energy =           0.0000000000000000
    PCM Polarization Energy =               0.0000000000000000
    EFP Energy =                            0.0000000000000000
    Total Energy =                         -0.9509393572221718

    Alert: EFP and PCM quantities not currently incorporated into SCF psivars.

Properties will be evaluated at   0.000000,   0.000000,   0.000000 Bohr
  ==> Properties <==


Properties computed using the SCF density matrix

  Nuclear Dipole Moment: (a.u.)
     X:     0.0000      Y:     0.0000      Z:     0.0000

  Electronic Dipole Moment: (a.u.)
     X:     0.0000      Y:     0.0000      Z:     0.0000

  Dipole Moment: (a.u.)
     X:     0.0000      Y:     0.0000      Z:     0.0000     Total:     0.0000

  Dipole Moment: (Debye)
     X:     0.0000      Y:     0.0000      Z:     0.0000     Total:     0.0000


  Saving occupied orbitals to File 180.

*** tstop() called on Kevins-MacBook-Pro.local at Fri Apr 10 18:02:10 2015
Module time:
	user time   =       0.20 seconds =       0.00 minutes
	system time =       0.01 seconds =       0.00 minutes
	total time  =          0 seconds =       0.00 minutes
Total time:
	user time   =       0.22 seconds =       0.00 minutes
	system time =       0.01 seconds =       0.00 minutes
	total time  =          0 seconds =       0.00 minutes

*** tstart() called on Kevins-MacBook-Pro.local
*** at Fri Apr 10 18:02:10 2015


         ---------------------------------------------------------
                                   SCF
            by Justin Turney, Rob Parrish, and Andy Simmonett
                              RHF Reference
                        1 Threads,    256 MiB Core
         ---------------------------------------------------------

  ==> Geometry <==

    Molecular point group: c1
    Full point group: D_inf_h

    Geometry (in Angstrom), charge = 0, multiplicity = 1:

       Center              X                  Y                   Z       
    ------------   -----------------  -----------------  -----------------
           H          0.000000000000     0.000000000000    -0.900000000000
           H          0.000000000000     0.000000000000     0.900000000000

  Running in c1 symmetry.

  Rotational constants: A = ************  B =     10.32515  C =     10.32515 [cm^-1]
  Rotational constants: A = ************  B = 309540.18687  C = 309540.18687 [MHz]
  Nuclear repulsion =    0.293987338105556

  Charge       = 0
  Multiplicity = 1
  Electrons    = 2
  Nalpha       = 1
  Nbeta        = 1

  ==> Algorithm <==

  SCF Algorithm Type is PK.
  DIIS enabled.
  MOM disabled.
  Fractional occupation disabled.
  Guess Type is CORE.
  Energy threshold   = 1.00e-08
  Density threshold  = 1.00e-08
  Integral threshold = 0.00e+00

  ==> Primary Basis <==

  Basis Set: CC-PVDZ
    Number of shells: 6
    Number of basis function: 10
    Number of Cartesian functions: 10
    Spherical Harmonics?: true
    Max angular momentum: 1

  ==> Pre-Iterations <==

   -------------------------------------------------------
    Irrep   Nso     Nmo     Nalpha   Nbeta   Ndocc  Nsocc
   -------------------------------------------------------
     A         10      10       0       0       0       0
   -------------------------------------------------------
    Total      10      10       1       1       1       0
   -------------------------------------------------------

  Starting with a DF guess...

 OEINTS: Overlap, kinetic, potential, dipole, and quadrupole integrals
         stored in file 35.

  ==> Integral Setup <==

  ==> DFJK: Density-Fitted J/K Matrices <==

    J tasked:                  Yes
    K tasked:                  Yes
    wK tasked:                  No
    OpenMP threads:              1
    Integrals threads:           1
    Memory (MB):               183
    Algorithm:                Core
    Integral Cache:           NONE
    Schwarz Cutoff:          1E-12
    Fitting Condition:       1E-12

   => Auxiliary Basis Set <=

  Basis Set: 
    Number of shells: 18
    Number of basis function: 46
    Number of Cartesian functions: 50
    Spherical Harmonics?: true
    Max angular momentum: 2

  Minimum eigenvalue in the overlap matrix is 2.0189459176E-01.
  Using Symmetric Orthogonalization.
  SCF Guess: Core (One-Electron) Hamiltonian.

  ==> Iterations <==

                           Total Energy        Delta E     RMS |[F,P]|

   @DF-RHF iter   1:    -0.92680566910900   -9.26806e-01   1.51261e-02 
   @DF-RHF iter   2:    -0.95020794771173   -2.34023e-02   2.59626e-03 DIIS
   @DF-RHF iter   3:    -0.95094537072735   -7.37423e-04   8.95624e-05 DIIS
   @DF-RHF iter   4:    -0.95094606636845   -6.95641e-07   5.53276e-07 DIIS
   @DF-RHF iter   5:    -0.95094606639752   -2.90710e-11   1.80231e-11 DIIS

  DF guess converged.

  ==> Integral Setup <==

 MINTS: Wrapper to libmints.
   by Justin Turney

   Calculation information:
      Number of atoms:                   2
      Number of AO shells:               6
      Number of SO shells:               6
      Number of primitives:             10
      Number of atomic orbitals:        10
      Number of basis functions:        10

      Number of irreps:                  1
      Integral cutoff                 0.00e+00
      Number of functions per irrep: [  10 ]

 OEINTS: Overlap, kinetic, potential, dipole, and quadrupole integrals
         stored in file 35.

      Computing two-electron integrals...done
      Computed 512 non-zero two-electron integrals.
        Stored in file 33.

	Batch   1 pq = [       0,      55] index = [             0,1540]
  ==> DiskJK: Disk-Based J/K Matrices <==

    J tasked:                  Yes
    K tasked:                  Yes
    wK tasked:                  No
    Memory (MB):               183
    Schwarz Cutoff:          1E-12

   @RHF iter   6:    -0.95093935689196    6.70951e-06   1.75340e-06 DIIS
   @RHF iter   7:    -0.95093935722217   -3.30210e-10   3.17620e-07 DIIS
   @RHF iter   8:    -0.95093935723361   -1.14400e-11   8.47319e-09 DIIS

  ==> Post-Iterations <==

    Orbital Energies (a.u.)
    -----------------------

    Doubly Occupied:                                                      

       1A     -0.404465  

    Virtual:                                                              

       2A     -0.009150     3A      0.655217     4A      0.675752  
       5A      1.276283     6A      1.435497     7A      1.435497  
       8A      1.532930     9A      1.532930    10A      1.850442  

    Final Occupation by Irrep:
              A 
    DOCC [     1 ]

  Energy converged.

  @RHF Final Energy:    -0.95093935723361

   => Energetics <=

    Nuclear Repulsion Energy =              0.2939873381055556
    One-Electron Energy =                  -1.6809235476068425
    Two-Electron Energy =                   0.4359968522676758
    DFT Exchange-Correlation Energy =       0.0000000000000000
    Empirical Dispersion Energy =           0.0000000000000000
    PCM Polarization Energy =               0.0000000000000000
    EFP Energy =                            0.0000000000000000
    Total Energy =                         -0.9509393572336111

    Alert: EFP and PCM quantities not currently incorporated into SCF psivars.

Properties will be evaluated at   0.000000,   0.000000,   0.000000 Bohr
  ==> Properties <==


Properties computed using the SCF density matrix

  Nuclear Dipole Moment: (a.u.)
     X:     0.0000      Y:     0.0000      Z:     0.0000

  Electronic Dipole Moment: (a.u.)
     X:    -0.0000      Y:    -0.0000      Z:     0.0000

  Dipole Moment: (a.u.)
     X:    -0.0000      Y:    -0.0000      Z:     0.0000     Total:     0.0000

  Dipole Moment: (Debye)
     X:    -0.0000      Y:    -0.0000      Z:     0.0000     Total:     0.0000


  Saving occupied orbitals to File 180.

*** tstop() called on Kevins-MacBook-Pro.local at Fri Apr 10 18:02:10 2015
Module time:
	user time   =       0.20 seconds =       0.00 minutes
	system time =       0.01 seconds =       0.00 minutes
	total time  =          0 seconds =       0.00 minutes
Total time:
	user time   =       0.42 seconds =       0.01 minutes
	system time =       0.02 seconds =       0.00 minutes
	total time  =          0 seconds =       0.00 minutes
Reading options from the SCF block
Calling plugin scf.so.
    Molecular point group: c1
    Full point group: D_inf_h

    Geometry (in Angstrom), charge = 0, multiplicity = 1:

       Center              X                  Y                   Z       
    ------------   -----------------  -----------------  -----------------
           H          0.000000000000     0.000000000000    -0.900000000000
           H          0.000000000000     0.000000000000     0.900000000000


    Nuclear repulsion energy:       0.29398734

  ## Overlap (Symmetry 0) ##
  Irrep: 1 Size: 10 x 10

                 1                   2                   3                   4                   5

    1     1.00000000000000     0.68486025149275     0.00000000000000     0.00000000000000     0.00000000000000
    2     0.68486025149275     1.00000000000000     0.00000000000000     0.00000000000000     0.00000000000000
    3     0.00000000000000     0.00000000000000     1.00000000000000     0.00000000000000     0.00000000000000
    4     0.00000000000000     0.00000000000000     0.00000000000000     1.00000000000000     0.00000000000000
    5     0.00000000000000     0.00000000000000     0.00000000000000     0.00000000000000     1.00000000000000
    6     0.05459186133257     0.22104805109486     0.07217822986417     0.00000000000000     0.00000000000000
    7     0.22104805109486     0.49372072364963     0.14624468383459     0.00000000000000     0.00000000000000
    8    -0.07217822986417    -0.14624468383459    -0.11049959947214     0.00000000000000     0.00000000000000
    9     0.00000000000000     0.00000000000000     0.00000000000000     0.01490906405645     0.00000000000000
   10     0.00000000000000     0.00000000000000     0.00000000000000     0.00000000000000     0.01490906405645

                 6                   7                   8                   9                  10

    1     0.05459186133257     0.22104805109486    -0.07217822986417     0.00000000000000     0.00000000000000
    2     0.22104805109486     0.49372072364963    -0.14624468383459     0.00000000000000     0.00000000000000
    3     0.07217822986417     0.14624468383459    -0.11049959947214     0.00000000000000     0.00000000000000
    4     0.00000000000000     0.00000000000000     0.00000000000000     0.01490906405645     0.00000000000000
    5     0.00000000000000     0.00000000000000     0.00000000000000     0.00000000000000     0.01490906405645
    6     1.00000000000000     0.68486025149275    -0.00000000000000     0.00000000000000     0.00000000000000
    7     0.68486025149275     1.00000000000000     0.00000000000000     0.00000000000000     0.00000000000000
    8    -0.00000000000000     0.00000000000000     1.00000000000000     0.00000000000000     0.00000000000000
    9     0.00000000000000     0.00000000000000     0.00000000000000     1.00000000000000     0.00000000000000
   10     0.00000000000000     0.00000000000000     0.00000000000000     0.00000000000000     1.00000000000000



  ## Kinetic (Symmetry 0) ##
  Irrep: 1 Size: 10 x 10

                 1                   2                   3                   4                   5

    1     0.96945722711242     0.20123413106538    -0.00000000000000     0.00000000000000     0.00000000000000
    2     0.20123413106538     0.18300000000000     0.00000000000000     0.00000000000000     0.00000000000000
    3    -0.00000000000000     0.00000000000000     1.81750000000000     0.00000000000000     0.00000000000000
    4     0.00000000000000     0.00000000000000     0.00000000000000     1.81750000000000     0.00000000000000
    5     0.00000000000000     0.00000000000000     0.00000000000000     0.00000000000000     1.81750000000000
    6    -0.03205514836632     0.01585418726033    -0.03394717495551     0.00000000000000     0.00000000000000
    7     0.01585418726033     0.04783867378869     0.03945605840534     0.00000000000000     0.00000000000000
    8     0.03394717495551    -0.03945605840534     0.04585915852752     0.00000000000000     0.00000000000000
    9     0.00000000000000     0.00000000000000     0.00000000000000    -0.01848882527004     0.00000000000000
   10     0.00000000000000     0.00000000000000     0.00000000000000     0.00000000000000    -0.01848882527004

                 6                   7                   8                   9                  10

    1    -0.03205514836632     0.01585418726033     0.03394717495551     0.00000000000000     0.00000000000000
    2     0.01585418726033     0.04783867378869    -0.03945605840534     0.00000000000000     0.00000000000000
    3    -0.03394717495551     0.03945605840534     0.04585915852752     0.00000000000000     0.00000000000000
    4     0.00000000000000     0.00000000000000     0.00000000000000    -0.01848882527004     0.00000000000000
    5     0.00000000000000     0.00000000000000     0.00000000000000     0.00000000000000    -0.01848882527004
    6     0.96945722711242     0.20123413106538     0.00000000000000     0.00000000000000     0.00000000000000
    7     0.20123413106538     0.18300000000000     0.00000000000000     0.00000000000000     0.00000000000000
    8     0.00000000000000     0.00000000000000     1.81750000000000     0.00000000000000     0.00000000000000
    9     0.00000000000000     0.00000000000000     0.00000000000000     1.81750000000000     0.00000000000000
   10     0.00000000000000     0.00000000000000     0.00000000000000     0.00000000000000     1.81750000000000



  ## Potential (Symmetry 0) ##
  Irrep: 1 Size: 10 x 10

                 1                   2                   3                   4                   5

    1    -1.67184800760358    -0.85099511523112    -0.05437408079619     0.00000000000000     0.00000000000000
    2    -0.85099511523112    -0.84622297966397    -0.05099570857588     0.00000000000000     0.00000000000000
    3    -0.05437408079619    -0.05099570857588    -1.21854329811629     0.00000000000000     0.00000000000000
    4     0.00000000000000     0.00000000000000     0.00000000000000    -1.19233061276413     0.00000000000000
    5     0.00000000000000     0.00000000000000     0.00000000000000     0.00000000000000    -1.19233061276413
    6    -0.06506089095815    -0.27010908771204    -0.08295229121716     0.00000000000000     0.00000000000000
    7    -0.27010908771204    -0.44427030799869    -0.16834833329457     0.00000000000000     0.00000000000000
    8     0.08295229121716     0.16834833329457     0.12605308238353     0.00000000000000     0.00000000000000
    9     0.00000000000000     0.00000000000000     0.00000000000000    -0.01546231041791     0.00000000000000
   10     0.00000000000000     0.00000000000000     0.00000000000000     0.00000000000000    -0.01546231041791

                 6                   7                   8                   9                  10

    1    -0.06506089095815    -0.27010908771204     0.08295229121716     0.00000000000000     0.00000000000000
    2    -0.27010908771204    -0.44427030799869     0.16834833329457     0.00000000000000     0.00000000000000
    3    -0.08295229121716    -0.16834833329457     0.12605308238353     0.00000000000000     0.00000000000000
    4     0.00000000000000     0.00000000000000     0.00000000000000    -0.01546231041791     0.00000000000000
    5     0.00000000000000     0.00000000000000     0.00000000000000     0.00000000000000    -0.01546231041791
    6    -1.67184800760358    -0.85099511523112     0.05437408079619     0.00000000000000     0.00000000000000
    7    -0.85099511523112    -0.84622297966397     0.05099570857588     0.00000000000000     0.00000000000000
    8     0.05437408079619     0.05099570857588    -1.21854329811629     0.00000000000000     0.00000000000000
    9     0.00000000000000     0.00000000000000     0.00000000000000    -1.19233061276413     0.00000000000000
   10     0.00000000000000     0.00000000000000     0.00000000000000     0.00000000000000    -1.19233061276413



  ## One Electron Ints (Symmetry 0) ##
  Irrep: 1 Size: 10 x 10

                 1                   2                   3                   4                   5

    1    -0.70239078049116    -0.64976098416574    -0.05437408079619     0.00000000000000     0.00000000000000
    2    -0.64976098416574    -0.66322297966397    -0.05099570857588     0.00000000000000     0.00000000000000
    3    -0.05437408079619    -0.05099570857588     0.59895670188371     0.00000000000000     0.00000000000000
    4     0.00000000000000     0.00000000000000     0.00000000000000     0.62516938723587     0.00000000000000
    5     0.00000000000000     0.00000000000000     0.00000000000000     0.00000000000000     0.62516938723587
    6    -0.09711603932447    -0.25425490045171    -0.11689946617267     0.00000000000000     0.00000000000000
    7    -0.25425490045171    -0.39643163420999    -0.12889227488923     0.00000000000000     0.00000000000000
    8     0.11689946617267     0.12889227488923     0.17191224091104     0.00000000000000     0.00000000000000
    9     0.00000000000000     0.00000000000000     0.00000000000000    -0.03395113568795     0.00000000000000
   10     0.00000000000000     0.00000000000000     0.00000000000000     0.00000000000000    -0.03395113568795

                 6                   7                   8                   9                  10

    1    -0.09711603932447    -0.25425490045171     0.11689946617267     0.00000000000000     0.00000000000000
    2    -0.25425490045171    -0.39643163420999     0.12889227488923     0.00000000000000     0.00000000000000
    3    -0.11689946617267    -0.12889227488923     0.17191224091104     0.00000000000000     0.00000000000000
    4     0.00000000000000     0.00000000000000     0.00000000000000    -0.03395113568795     0.00000000000000
    5     0.00000000000000     0.00000000000000     0.00000000000000     0.00000000000000    -0.03395113568795
    6    -0.70239078049116    -0.64976098416574     0.05437408079619     0.00000000000000     0.00000000000000
    7    -0.64976098416574    -0.66322297966397     0.05099570857588     0.00000000000000     0.00000000000000
    8     0.05437408079619     0.05099570857588     0.59895670188371     0.00000000000000     0.00000000000000
    9     0.00000000000000     0.00000000000000     0.00000000000000     0.62516938723587     0.00000000000000
   10     0.00000000000000     0.00000000000000     0.00000000000000     0.00000000000000     0.62516938723587




	There are 0 unique integrals

  ## Fock (Symmetry 0) ##
  Irrep: 1 Size: 10 x 10

                 1                   2                   3                   4                   5

    1    -0.46417331528567    -0.35963996088370    -0.05923963045253     0.00000000000000     0.00000000000000
    2    -0.35963996088370    -0.32257443460650     0.06336871651011    -0.00000000000000     0.00000000000000
    3    -0.05923963045253     0.06336871651011     0.66053279123595     0.00000000000000     0.00000000000000
    4     0.00000000000000    -0.00000000000000     0.00000000000000     0.62581467309773     0.00000000000000
    5     0.00000000000000     0.00000000000000     0.00000000000000     0.00000000000000     0.62581467309773
    6     0.01203307240091    -0.03537219536238    -0.03476183406651    -0.00000000000000     0.00000000000000
    7    -0.03537219536238    -0.11125575235078    -0.15211233607319    -0.00000000000000     0.00000000000000
    8     0.03476183406651     0.15211233607319     0.25716168119078     0.00000000000000     0.00000000000000
    9    -0.00000000000000    -0.00000000000000    -0.00000000000000    -0.04328144673663     0.00000000000000
   10     0.00000000000000     0.00000000000000     0.00000000000000     0.00000000000000    -0.04328144673663

                 6                   7                   8                   9                  10

    1     0.01203307240091    -0.03537219536238     0.03476183406651    -0.00000000000000     0.00000000000000
    2    -0.03537219536238    -0.11125575235078     0.15211233607319    -0.00000000000000     0.00000000000000
    3    -0.03476183406651    -0.15211233607319     0.25716168119078    -0.00000000000000     0.00000000000000
    4    -0.00000000000000    -0.00000000000000     0.00000000000000    -0.04328144673663     0.00000000000000
    5     0.00000000000000     0.00000000000000     0.00000000000000     0.00000000000000    -0.04328144673663
    6    -0.46417331528567    -0.35963996088370     0.05923963045253    -0.00000000000000     0.00000000000000
    7    -0.35963996088370    -0.32257443460650    -0.06336871651011     0.00000000000000     0.00000000000000
    8     0.05923963045253    -0.06336871651011     0.66053279123595    -0.00000000000000     0.00000000000000
    9    -0.00000000000000     0.00000000000000    -0.00000000000000     0.62581467309773     0.00000000000000
   10     0.00000000000000     0.00000000000000     0.00000000000000     0.00000000000000     0.62581467309773



  ## C (Symmetry 0) ##
  Irrep: 1 Size: 10 x 10

                 1                   2                   3                   4                   5

    1    -0.33893075076572    -0.40911063079166    -0.11787899788649     0.02775483349763    -0.00959782451257
    2    -0.54598203025173    -0.34892386211813     0.10526062298892    -0.27334975776388    -0.10206801309721
    3     0.47661016523847    -0.53092572770430     0.00645283102012    -0.07431317959958    -0.05239343547988
    4    -0.40385224559661     0.56378053882489    -0.13834102727788    -0.00527188257110    -0.00000000000000
    5    -0.05449788861243    -0.04719899868088     0.70859474210506    -0.00000000000000     0.00000000000000
    6    -0.02965830563321    -0.03378326387435     0.00000146431216    -0.38429734290934    -0.91841142859932
    7     0.15212486973558     0.18992859925360    -0.02058605064113     1.03268983964161     0.42139520207336
    8    -0.02414100861663    -0.06864891622476     0.00575575804544    -0.03709785916402    -0.72587687013688
    9     0.00301069681334    -0.00420295365488     0.00103132493262     0.70716573167781    -0.00000000000000
   10     0.04349543437045    -0.13858635798407    -0.69728490765846    -0.00000000000000     0.00000000000000

                 6                   7                   8                   9                  10

    1    -0.96812207975790    -0.84781830665916     0.06897462461893     0.02775483349763    -0.02557591225423
    2     1.14479076490162     0.82997827655223     0.02615597491187    -0.27334975776388     0.04655834610195
    3     0.53734868383832    -0.48857540737604    -0.00173188359370    -0.07431317959958     0.03641534773822
    4     0.40385224559662    -0.56378053882489    -0.13834102727788     0.00527188257111    -0.00000000000000
    5    -0.05385539822199    -0.04927066782048    -0.69827648757978     0.00000000000000     0.00000000000000
    6     0.01578333193349    -0.00209879162259     0.00353052143375    -0.38429734290934    -0.90449229611445
    7    -0.29541737988055    -0.12212309493631    -0.01419951015687     1.03268983964161     0.34719948374532
    8     0.09752834220406     0.01618581633322     0.00370108452944    -0.03709785916402     0.71195773765200
    9    -0.00301069681334     0.00420295365488     0.00103132493262    -0.70716573167781    -0.00000000000000
   10    -0.04268766643318     0.13930553416963    -0.68679675815782     0.00000000000000     0.00000000000000




 In Bisection function HOMO = -0.851  LUMO =  0.962

 0.05553 = (-0.85142 + 0.96248)/2.0
 sum -  nocc_ = 3.00000000
 On Iteration in Bisection 0
 a: 3.00000  b:-0.50000

 -0.39794 = (-0.85142 + 0.05553)/2.0
 sum -  nocc_ = 1.00000000
 On Iteration in Bisection 1
 a: 1.00000  b:-0.50000

 -0.62468 = (-0.85142 + -0.39794)/2.0
 sum -  nocc_ = 1.00000000
 On Iteration in Bisection 2
 a: 1.00000  b:-0.50000

 -0.73805 = (-0.85142 + -0.62468)/2.0
 sum -  nocc_ = 0.00000000
 ef = -0.73805 sum = 1.00000 

 Iter: 0  T:      100.000  val:-0.738049  sumni 0.00000
 ne = 1.0000

Nuc Replusion =       0.293987338106
 1st iteration =      -0.351295189109
 In Bisection function HOMO = -0.307  LUMO =  1.936

 0.81462 = (-0.30667 + 1.93592)/2.0
 sum -  nocc_ = 2.00000000
 On Iteration in Bisection 0
 a: 2.00000  b:-0.50000

 0.25398 = (-0.30667 + 0.81462)/2.0
 sum -  nocc_ = 1.00000000
 On Iteration in Bisection 1
 a: 1.00000  b:-0.50000

 -0.02635 = (-0.30667 + 0.25398)/2.0
 sum -  nocc_ = 0.00000000
 ef = -0.02635 sum = 1.00000 

 Iter: 0  T:      100.000  val:-0.026345  sumni 0.00000
 ne = 1.0000

 iter:1  failiter:1  energy:     -1.103446812441  total:     -0.809459474335  error:     -0.152507455207
 In Bisection function HOMO = -0.318  LUMO =  1.982

 0.83157 = (-0.31849 + 1.98164)/2.0
 sum -  nocc_ = 2.00000000
 On Iteration in Bisection 0
 a: 2.00000  b:-0.50000

 0.25654 = (-0.31849 + 0.83157)/2.0
 sum -  nocc_ = 1.00000000
 On Iteration in Bisection 1
 a: 1.00000  b:-0.50000

 -0.03097 = (-0.31849 + 0.25654)/2.0
 sum -  nocc_ = 1.00000000
 On Iteration in Bisection 2
 a: 1.00000  b:-0.50000

 -0.17473 = (-0.31849 + -0.03097)/2.0
 sum -  nocc_ = 0.00000000
 ef = -0.17473 sum = 1.00000 

 Iter: 1  T:      100.000  val:-0.174733  sumni 0.00000
 ne = 1.0000

 iter:2  failiter:2  energy:     -1.156327470679  total:     -0.862340132573  error:     -0.052880658238
 In Bisection function HOMO = -0.397  LUMO =  1.868

 0.73526 = (-0.39707 + 1.86759)/2.0
 sum -  nocc_ = 2.99723592
 On Iteration in Bisection 0
 a: 2.99724  b:-0.50000

 0.16909 = (-0.39707 + 0.73526)/2.0
 sum -  nocc_ = 1.00000000
 On Iteration in Bisection 1
 a: 1.00000  b:-0.50000

 -0.11399 = (-0.39707 + 0.16909)/2.0
 sum -  nocc_ = 0.00000000
 ef = -0.11399 sum = 1.00000 

 Iter: 2  T:      100.000  val:-0.113989  sumni 0.00000
 ne = 1.0000

 iter:3  failiter:3  energy:     -1.237706431742  total:     -0.943719093637  error:     -0.081378961063
 In Bisection function HOMO = -0.404  LUMO =  1.852

 0.72384 = (-0.40398 + 1.85165)/2.0
 sum -  nocc_ = 3.00000000
 On Iteration in Bisection 0
 a: 3.00000  b:-0.50000

 0.15993 = (-0.40398 + 0.72384)/2.0
 sum -  nocc_ = 1.00000000
 On Iteration in Bisection 1
 a: 1.00000  b:-0.50000

 -0.12202 = (-0.40398 + 0.15993)/2.0
 sum -  nocc_ = 0.00000000
 ef = -0.12202 sum = 1.00000 

 Iter: 3  T:      100.000  val:-0.122024  sumni 0.00000
 ne = 1.0000

 iter:4  failiter:4  energy:     -1.244513487353  total:     -0.950526149248  error:     -0.006807055611
 In Bisection function HOMO = -0.404  LUMO =  1.851

 0.72313 = (-0.40438 + 1.85064)/2.0
 sum -  nocc_ = 3.00000000
 On Iteration in Bisection 0
 a: 3.00000  b:-0.50000

 0.15937 = (-0.40438 + 0.72313)/2.0
 sum -  nocc_ = 1.00000000
 On Iteration in Bisection 1
 a: 1.00000  b:-0.50000

 -0.12250 = (-0.40438 + 0.15937)/2.0
 sum -  nocc_ = 0.00000000
 ef = -0.12250 sum = 1.00000 

 Iter: 4  T:      100.000  val:-0.122505  sumni 0.00000
 ne = 1.0000

 iter:5  failiter:5  energy:     -1.244862885216  total:     -0.950875547110  error:     -0.000349397862
 In Bisection function HOMO = -0.404  LUMO =  1.850

 0.72302 = (-0.40445 + 1.85049)/2.0
 sum -  nocc_ = 3.00000000
 On Iteration in Bisection 0
 a: 3.00000  b:-0.50000

 0.15929 = (-0.40445 + 0.72302)/2.0
 sum -  nocc_ = 1.00000000
 On Iteration in Bisection 1
 a: 1.00000  b:-0.50000

 -0.12258 = (-0.40445 + 0.15929)/2.0
 sum -  nocc_ = 0.00000000
 ef = -0.12258 sum = 1.00000 

 Iter: 5  T:      100.000  val:-0.122580  sumni 0.00000
 ne = 1.0000

 iter:6  failiter:6  energy:     -1.244912471632  total:     -0.950925133527  error:     -0.000049586417
 In Bisection function HOMO = -0.404  LUMO =  1.850

 0.72299 = (-0.40446 + 1.85045)/2.0
 sum -  nocc_ = 3.00000000
 On Iteration in Bisection 0
 a: 3.00000  b:-0.50000

 0.15927 = (-0.40446 + 0.72299)/2.0
 sum -  nocc_ = 1.00000000
 On Iteration in Bisection 1
 a: 1.00000  b:-0.50000

 -0.12260 = (-0.40446 + 0.15927)/2.0
 sum -  nocc_ = 0.00000000
 ef = -0.12260 sum = 1.00000 

 Iter: 6  T:      100.000  val:-0.122597  sumni 0.00000
 ne = 1.0000

 iter:7  failiter:7  energy:     -1.244923586654  total:     -0.950936248548  error:     -0.000011115021
 In Bisection function HOMO = -0.404  LUMO =  1.850

 0.72299 = (-0.40446 + 1.85044)/2.0
 sum -  nocc_ = 3.00000000
 On Iteration in Bisection 0
 a: 3.00000  b:-0.50000

 0.15926 = (-0.40446 + 0.72299)/2.0
 sum -  nocc_ = 1.00000000
 On Iteration in Bisection 1
 a: 1.00000  b:-0.50000

 -0.12260 = (-0.40446 + 0.15926)/2.0
 sum -  nocc_ = 0.00000000
 ef = -0.12260 sum = 1.00000 

 Iter: 7  T:      100.000  val:-0.122601  sumni 0.00000
 ne = 1.0000

 iter:8  failiter:8  energy:     -1.244926043585  total:     -0.950938705479  error:     -0.000002456931
 In Bisection function HOMO = -0.404  LUMO =  1.850

 0.72299 = (-0.40446 + 1.85044)/2.0
 sum -  nocc_ = 3.00000000
 On Iteration in Bisection 0
 a: 3.00000  b:-0.50000

 0.15926 = (-0.40446 + 0.72299)/2.0
 sum -  nocc_ = 1.00000000
 On Iteration in Bisection 1
 a: 1.00000  b:-0.50000

 -0.12260 = (-0.40446 + 0.15926)/2.0
 sum -  nocc_ = 0.00000000
 ef = -0.12260 sum = 1.00000 

 Iter: 8  T:      100.000  val:-0.122601  sumni 0.00000
 ne = 1.0000

 iter:9  failiter:9  energy:     -1.244926562503  total:     -0.950939224398  error:     -0.000000518919
 In Bisection function HOMO = -0.404  LUMO =  1.850

 0.72299 = (-0.40446 + 1.85044)/2.0
 sum -  nocc_ = 3.00000000
 On Iteration in Bisection 0
 a: 3.00000  b:-0.50000

 0.15926 = (-0.40446 + 0.72299)/2.0
 sum -  nocc_ = 1.00000000
 On Iteration in Bisection 1
 a: 1.00000  b:-0.50000

 -0.12260 = (-0.40446 + 0.15926)/2.0
 sum -  nocc_ = 0.00000000
 ef = -0.12260 sum = 1.00000 

 Iter: 9  T:      100.000  val:-0.122602  sumni 0.00000
 ne = 1.0000

 iter:10  failiter:10  energy:     -1.244926668763  total:     -0.950939330658  error:     -0.000000106260
 In Bisection function HOMO = -0.404  LUMO =  1.850

 0.72299 = (-0.40446 + 1.85044)/2.0
 sum -  nocc_ = 3.00000000
 On Iteration in Bisection 0
 a: 3.00000  b:-0.50000

 0.15926 = (-0.40446 + 0.72299)/2.0
 sum -  nocc_ = 1.00000000
 On Iteration in Bisection 1
 a: 1.00000  b:-0.50000

 -0.12260 = (-0.40446 + 0.15926)/2.0
 sum -  nocc_ = 0.00000000
 ef = -0.12260 sum = 1.00000 

 Iter: 10  T:      100.000  val:-0.122602  sumni 0.00000
 ne = 1.0000

 iter:11  failiter:11  energy:     -1.244926690088  total:     -0.950939351982  error:     -0.000000021325
 In Bisection function HOMO = -0.404  LUMO =  1.850

 0.72299 = (-0.40446 + 1.85044)/2.0
 sum -  nocc_ = 3.00000000
 On Iteration in Bisection 0
 a: 3.00000  b:-0.50000

 0.15926 = (-0.40446 + 0.72299)/2.0
 sum -  nocc_ = 1.00000000
 On Iteration in Bisection 1
 a: 1.00000  b:-0.50000

 -0.12260 = (-0.40446 + 0.15926)/2.0
 sum -  nocc_ = 0.00000000
 ef = -0.12260 sum = 1.00000 

 Iter: 11  T:      100.000  val:-0.122602  sumni 0.00000
 ne = 1.0000

 iter:12  failiter:12  energy:     -1.244926694310  total:     -0.950939356205  error:     -0.000000004222
 In Bisection function HOMO = -0.404  LUMO =  1.850

 0.72299 = (-0.40446 + 1.85044)/2.0
 sum -  nocc_ = 3.00000000
 On Iteration in Bisection 0
 a: 3.00000  b:-0.50000

 0.15926 = (-0.40446 + 0.72299)/2.0
 sum -  nocc_ = 1.00000000
 On Iteration in Bisection 1
 a: 1.00000  b:-0.50000

 -0.12260 = (-0.40446 + 0.15926)/2.0
 sum -  nocc_ = 0.00000000
 ef = -0.12260 sum = 1.00000 

 Iter: 12  T:      100.000  val:-0.122602  sumni 0.00000
 ne = 1.0000

 iter:13  failiter:13  energy:     -1.244926695139  total:     -0.950939357033  error:     -0.000000000828
 In Bisection function HOMO = -0.404  LUMO =  1.850

 0.72299 = (-0.40446 + 1.85044)/2.0
 sum -  nocc_ = 3.00000000
 On Iteration in Bisection 0
 a: 3.00000  b:-0.50000

 0.15926 = (-0.40446 + 0.72299)/2.0
 sum -  nocc_ = 1.00000000
 On Iteration in Bisection 1
 a: 1.00000  b:-0.50000

 -0.12260 = (-0.40446 + 0.15926)/2.0
 sum -  nocc_ = 0.00000000
 ef = -0.12260 sum = 1.00000 

 Iter: 13  T:      100.000  val:-0.122602  sumni 0.00000
 ne = 1.0000

 iter:14  failiter:14  energy:     -1.244926695300  total:     -0.950939357195  error:     -0.000000000162
 In Bisection function HOMO = -0.404  LUMO =  1.850

 0.72299 = (-0.40446 + 1.85044)/2.0
 sum -  nocc_ = 3.00000000
 On Iteration in Bisection 0
 a: 3.00000  b:-0.50000

 0.15926 = (-0.40446 + 0.72299)/2.0
 sum -  nocc_ = 1.00000000
 On Iteration in Bisection 1
 a: 1.00000  b:-0.50000

 -0.12260 = (-0.40446 + 0.15926)/2.0
 sum -  nocc_ = 0.00000000
 ef = -0.12260 sum = 1.00000 

 Iter: 14  T:      100.000  val:-0.122602  sumni 0.00000
 ne = 1.0000

 iter:15  failiter:15  energy:     -1.244926695332  total:     -0.950939357226  error:     -0.000000000031
 In Bisection function HOMO = -0.404  LUMO =  1.850

 0.72299 = (-0.40446 + 1.85044)/2.0
 sum -  nocc_ = 3.00000000
 On Iteration in Bisection 0
 a: 3.00000  b:-0.50000

 0.15926 = (-0.40446 + 0.72299)/2.0
 sum -  nocc_ = 1.00000000
 On Iteration in Bisection 1
 a: 1.00000  b:-0.50000

 -0.12260 = (-0.40446 + 0.15926)/2.0
 sum -  nocc_ = 0.00000000
 ef = -0.12260 sum = 1.00000 

 Iter: 15  T:      100.000  val:-0.122602  sumni 0.00000
 ne = 1.0000

 iter:16  failiter:16  energy:     -1.244926695338  total:     -0.950939357232  error:     -0.000000000006
 In Bisection function HOMO = -0.404  LUMO =  1.850

 0.72299 = (-0.40446 + 1.85044)/2.0
 sum -  nocc_ = 3.00000000
 On Iteration in Bisection 0
 a: 3.00000  b:-0.50000

 0.15926 = (-0.40446 + 0.72299)/2.0
 sum -  nocc_ = 1.00000000
 On Iteration in Bisection 1
 a: 1.00000  b:-0.50000

 -0.12260 = (-0.40446 + 0.15926)/2.0
 sum -  nocc_ = 0.00000000
 ef = -0.12260 sum = 1.00000 

 Iter: 16  T:      100.000  val:-0.122602  sumni 0.00000
 ne = 1.0000

 iter:17  failiter:17  energy:     -1.244926695339  total:     -0.950939357233  error:     -0.000000000001
 In Bisection function HOMO = -0.404  LUMO =  1.850

 0.72299 = (-0.40446 + 1.85044)/2.0
 sum -  nocc_ = 3.00000000
 On Iteration in Bisection 0
 a: 3.00000  b:-0.50000

 0.15926 = (-0.40446 + 0.72299)/2.0
 sum -  nocc_ = 1.00000000
 On Iteration in Bisection 1
 a: 1.00000  b:-0.50000

 -0.12260 = (-0.40446 + 0.15926)/2.0
 sum -  nocc_ = 0.00000000
 ef = -0.12260 sum = 1.00000 

 Iter: 17  T:      100.000  val:-0.122602  sumni 0.00000
 ne = 1.0000

 iter:18  failiter:18  energy:     -1.244926695339  total:     -0.950939357234  error:     -0.000000000000
 FTHFEnergy =    -0.950939
 FD_dis[0] = 1.00000000 with -0.404465 eig value
 FD_dis[1] = 0.00000000 with -0.009150 eig value
 FD_dis[2] = 0.00000000 with 0.655217 eig value
 FD_dis[3] = 0.00000000 with 0.675752 eig value
 FD_dis[4] = 0.00000000 with 1.276283 eig value
 FD_dis[5] = 0.00000000 with 1.435497 eig value
 FD_dis[6] = 0.00000000 with 1.435497 eig value
 FD_dis[7] = 0.00000000 with 1.532930 eig value
 FD_dis[8] = 0.00000000 with 1.532930 eig value
 FD_dis[9] = 0.00000000 with 1.850442 eig value
*** PSI4 exiting successfully. Buy a developer a beer!
