    -----------------------------------------------------------------------
          PSI4: An Open-Source Ab Initio Electronic Structure Package
                              PSI 4.0 Driver

               Git: Rev {master} 556e8139d3cfa1f96ccffe2cdf22cc56a185d2b2

    J. M. Turney, A. C. Simmonett, R. M. Parrish, E. G. Hohenstein,
    F. A. Evangelista, J. T. Fermann, B. J. Mintz, L. A. Burns, J. J. Wilke,
    M. L. Abrams, N. J. Russ, M. L. Leininger, C. L. Janssen, E. T. Seidl,
    W. D. Allen, H. F. Schaefer, R. A. King, E. F. Valeev, C. D. Sherrill,
    and T. D. Crawford, WIREs Comput. Mol. Sci. 2, 556-565 (2012)
    (doi: 10.1002/wcms.93)

                         Additional Contributions by
    A. E. DePrince, M. Saitow, U. Bozkaya, A. Yu. Sokolov
    -----------------------------------------------------------------------

    Process ID:  11942
    PSI4DATADIR: /Users/kevinhannon/Programs/psi4cmake/psi4/lib
    Memory level set to 256.000 MB

  ==> Input File <==

--------------------------------------------------------------------------

# PYTHONPATH must include directory above plugin directory.
#     Define either externally or here, then import plugin.
sys.path.insert(0, '/Users/kevinhannon/Programs/Quantum_Programs/Quantum-Programs/GS/')
import scf

molecule {
0 1
H
H 1 1.70000
symmetry c1
units angstrom
}


set {
  basis cc-pvdz
  reference rhf
  scf_type  pk
}

set scf {
  DO_FTHF true
  MAX_ITER 130
  MAX_TEMP 100
  TEMP_INCREMENT 0
  bisect  true
  bisect_iter  40
}
energy('rhf')

energy('scf')


--------------------------------------------------------------------------

*** tstart() called on Kevins-MacBook-Pro.local
*** at Fri Apr 10 18:02:09 2015

/Users/kevinhannon/Programs/Quantum_Programs/Quantum-Programs/GS/scf/scf.so loaded.

*** tstart() called on Kevins-MacBook-Pro.local
*** at Fri Apr 10 18:02:09 2015


         ---------------------------------------------------------
                                   SCF
            by Justin Turney, Rob Parrish, and Andy Simmonett
                              RHF Reference
                        1 Threads,    256 MiB Core
         ---------------------------------------------------------

  ==> Geometry <==

    Molecular point group: c1
    Full point group: D_inf_h

    Geometry (in Angstrom), charge = 0, multiplicity = 1:

       Center              X                  Y                   Z       
    ------------   -----------------  -----------------  -----------------
           H          0.000000000000     0.000000000000    -0.850000000000
           H          0.000000000000     0.000000000000     0.850000000000

  Running in c1 symmetry.

  Rotational constants: A = ************  B =     11.57560  C =     11.57560 [cm^-1]
  Rotational constants: A = ************  B = 347027.75276  C = 347027.75276 [MHz]
  Nuclear repulsion =    0.311280710935294

  Charge       = 0
  Multiplicity = 1
  Electrons    = 2
  Nalpha       = 1
  Nbeta        = 1

  ==> Algorithm <==

  SCF Algorithm Type is PK.
  DIIS enabled.
  MOM disabled.
  Fractional occupation disabled.
  Guess Type is CORE.
  Energy threshold   = 1.00e-06
  Density threshold  = 1.00e-06
  Integral threshold = 0.00e+00

  ==> Primary Basis <==

  Basis Set: CC-PVDZ
    Number of shells: 6
    Number of basis function: 10
    Number of Cartesian functions: 10
    Spherical Harmonics?: true
    Max angular momentum: 1

  ==> Pre-Iterations <==

   -------------------------------------------------------
    Irrep   Nso     Nmo     Nalpha   Nbeta   Ndocc  Nsocc
   -------------------------------------------------------
     A         10      10       0       0       0       0
   -------------------------------------------------------
    Total      10      10       1       1       1       0
   -------------------------------------------------------

  Starting with a DF guess...

 OEINTS: Overlap, kinetic, potential, dipole, and quadrupole integrals
         stored in file 35.

  ==> Integral Setup <==

  ==> DFJK: Density-Fitted J/K Matrices <==

    J tasked:                  Yes
    K tasked:                  Yes
    wK tasked:                  No
    OpenMP threads:              1
    Integrals threads:           1
    Memory (MB):               183
    Algorithm:                Core
    Integral Cache:           NONE
    Schwarz Cutoff:          1E-12
    Fitting Condition:       1E-12

   => Auxiliary Basis Set <=

  Basis Set: 
    Number of shells: 18
    Number of basis function: 46
    Number of Cartesian functions: 50
    Spherical Harmonics?: true
    Max angular momentum: 2

  Minimum eigenvalue in the overlap matrix is 1.9346799773E-01.
  Using Symmetric Orthogonalization.
  SCF Guess: Core (One-Electron) Hamiltonian.

  ==> Iterations <==

                           Total Energy        Delta E     RMS |[F,P]|

   @DF-RHF iter   1:    -0.94047013744158   -9.40470e-01   1.58056e-02 
   @DF-RHF iter   2:    -0.96619726527901   -2.57271e-02   2.71755e-03 DIIS
   @DF-RHF iter   3:    -0.96700484288387   -8.07578e-04   9.54809e-05 DIIS
   @DF-RHF iter   4:    -0.96700561621932   -7.73335e-07   9.09952e-07 DIIS

  DF guess converged.

  ==> Integral Setup <==

 MINTS: Wrapper to libmints.
   by Justin Turney

   Calculation information:
      Number of atoms:                   2
      Number of AO shells:               6
      Number of SO shells:               6
      Number of primitives:             10
      Number of atomic orbitals:        10
      Number of basis functions:        10

      Number of irreps:                  1
      Integral cutoff                 0.00e+00
      Number of functions per irrep: [  10 ]

 OEINTS: Overlap, kinetic, potential, dipole, and quadrupole integrals
         stored in file 35.

      Computing two-electron integrals...done
      Computed 512 non-zero two-electron integrals.
        Stored in file 33.

	Batch   1 pq = [       0,      55] index = [             0,1540]
  ==> DiskJK: Disk-Based J/K Matrices <==

    J tasked:                  Yes
    K tasked:                  Yes
    wK tasked:                  No
    Memory (MB):               183
    Schwarz Cutoff:          1E-12

   @RHF iter   5:    -0.96699945256548    6.16365e-06   1.18099e-06 DIIS
   @RHF iter   6:    -0.96699945270152   -1.36039e-10   2.25116e-07 DIIS

  ==> Post-Iterations <==

    Orbital Energies (a.u.)
    -----------------------

    Doubly Occupied:                                                      

       1A     -0.415036  

    Virtual:                                                              

       2A      0.006059     3A      0.659304     4A      0.670699  
       5A      1.257144     6A      1.421491     7A      1.421491  
       8A      1.555454     9A      1.555454    10A      1.936853  

    Final Occupation by Irrep:
              A 
    DOCC [     1 ]

  Energy converged.

  @RHF Final Energy:    -0.96699945270152

   => Energetics <=

    Nuclear Repulsion Energy =              0.3112807109352941
    One-Electron Energy =                  -1.7264877958937919
    Two-Electron Energy =                   0.4482076322569821
    DFT Exchange-Correlation Energy =       0.0000000000000000
    Empirical Dispersion Energy =           0.0000000000000000
    PCM Polarization Energy =               0.0000000000000000
    EFP Energy =                            0.0000000000000000
    Total Energy =                         -0.9669994527015155

    Alert: EFP and PCM quantities not currently incorporated into SCF psivars.

Properties will be evaluated at   0.000000,   0.000000,   0.000000 Bohr
  ==> Properties <==


Properties computed using the SCF density matrix

  Nuclear Dipole Moment: (a.u.)
     X:     0.0000      Y:     0.0000      Z:     0.0000

  Electronic Dipole Moment: (a.u.)
     X:     0.0000      Y:    -0.0000      Z:    -0.0000

  Dipole Moment: (a.u.)
     X:     0.0000      Y:    -0.0000      Z:    -0.0000     Total:     0.0000

  Dipole Moment: (Debye)
     X:     0.0000      Y:    -0.0000      Z:    -0.0000     Total:     0.0000


  Saving occupied orbitals to File 180.

*** tstop() called on Kevins-MacBook-Pro.local at Fri Apr 10 18:02:09 2015
Module time:
	user time   =       0.19 seconds =       0.00 minutes
	system time =       0.01 seconds =       0.00 minutes
	total time  =          0 seconds =       0.00 minutes
Total time:
	user time   =       0.21 seconds =       0.00 minutes
	system time =       0.01 seconds =       0.00 minutes
	total time  =          0 seconds =       0.00 minutes

*** tstart() called on Kevins-MacBook-Pro.local
*** at Fri Apr 10 18:02:09 2015


         ---------------------------------------------------------
                                   SCF
            by Justin Turney, Rob Parrish, and Andy Simmonett
                              RHF Reference
                        1 Threads,    256 MiB Core
         ---------------------------------------------------------

  ==> Geometry <==

    Molecular point group: c1
    Full point group: D_inf_h

    Geometry (in Angstrom), charge = 0, multiplicity = 1:

       Center              X                  Y                   Z       
    ------------   -----------------  -----------------  -----------------
           H          0.000000000000     0.000000000000    -0.850000000000
           H          0.000000000000     0.000000000000     0.850000000000

  Running in c1 symmetry.

  Rotational constants: A = ************  B =     11.57560  C =     11.57560 [cm^-1]
  Rotational constants: A = ************  B = 347027.75276  C = 347027.75276 [MHz]
  Nuclear repulsion =    0.311280710935294

  Charge       = 0
  Multiplicity = 1
  Electrons    = 2
  Nalpha       = 1
  Nbeta        = 1

  ==> Algorithm <==

  SCF Algorithm Type is PK.
  DIIS enabled.
  MOM disabled.
  Fractional occupation disabled.
  Guess Type is CORE.
  Energy threshold   = 1.00e-08
  Density threshold  = 1.00e-08
  Integral threshold = 0.00e+00

  ==> Primary Basis <==

  Basis Set: CC-PVDZ
    Number of shells: 6
    Number of basis function: 10
    Number of Cartesian functions: 10
    Spherical Harmonics?: true
    Max angular momentum: 1

  ==> Pre-Iterations <==

   -------------------------------------------------------
    Irrep   Nso     Nmo     Nalpha   Nbeta   Ndocc  Nsocc
   -------------------------------------------------------
     A         10      10       0       0       0       0
   -------------------------------------------------------
    Total      10      10       1       1       1       0
   -------------------------------------------------------

  Starting with a DF guess...

 OEINTS: Overlap, kinetic, potential, dipole, and quadrupole integrals
         stored in file 35.

  ==> Integral Setup <==

  ==> DFJK: Density-Fitted J/K Matrices <==

    J tasked:                  Yes
    K tasked:                  Yes
    wK tasked:                  No
    OpenMP threads:              1
    Integrals threads:           1
    Memory (MB):               183
    Algorithm:                Core
    Integral Cache:           NONE
    Schwarz Cutoff:          1E-12
    Fitting Condition:       1E-12

   => Auxiliary Basis Set <=

  Basis Set: 
    Number of shells: 18
    Number of basis function: 46
    Number of Cartesian functions: 50
    Spherical Harmonics?: true
    Max angular momentum: 2

  Minimum eigenvalue in the overlap matrix is 1.9346799773E-01.
  Using Symmetric Orthogonalization.
  SCF Guess: Core (One-Electron) Hamiltonian.

  ==> Iterations <==

                           Total Energy        Delta E     RMS |[F,P]|

   @DF-RHF iter   1:    -0.94047013744158   -9.40470e-01   1.58056e-02 
   @DF-RHF iter   2:    -0.96619726527901   -2.57271e-02   2.71755e-03 DIIS
   @DF-RHF iter   3:    -0.96700484288387   -8.07578e-04   9.54809e-05 DIIS
   @DF-RHF iter   4:    -0.96700561621932   -7.73335e-07   9.09952e-07 DIIS
   @DF-RHF iter   5:    -0.96700561630910   -8.97766e-11   1.00718e-11 DIIS

  DF guess converged.

  ==> Integral Setup <==

 MINTS: Wrapper to libmints.
   by Justin Turney

   Calculation information:
      Number of atoms:                   2
      Number of AO shells:               6
      Number of SO shells:               6
      Number of primitives:             10
      Number of atomic orbitals:        10
      Number of basis functions:        10

      Number of irreps:                  1
      Integral cutoff                 0.00e+00
      Number of functions per irrep: [  10 ]

 OEINTS: Overlap, kinetic, potential, dipole, and quadrupole integrals
         stored in file 35.

      Computing two-electron integrals...done
      Computed 512 non-zero two-electron integrals.
        Stored in file 33.

	Batch   1 pq = [       0,      55] index = [             0,1540]
  ==> DiskJK: Disk-Based J/K Matrices <==

    J tasked:                  Yes
    K tasked:                  Yes
    wK tasked:                  No
    Memory (MB):               183
    Schwarz Cutoff:          1E-12

   @RHF iter   6:    -0.96699945256548    6.16374e-06   1.18098e-06 DIIS
   @RHF iter   7:    -0.96699945270152   -1.36039e-10   2.25114e-07 DIIS
   @RHF iter   8:    -0.96699945270673   -5.20961e-12   1.66891e-09 DIIS

  ==> Post-Iterations <==

    Orbital Energies (a.u.)
    -----------------------

    Doubly Occupied:                                                      

       1A     -0.415036  

    Virtual:                                                              

       2A      0.006059     3A      0.659304     4A      0.670699  
       5A      1.257144     6A      1.421491     7A      1.421491  
       8A      1.555454     9A      1.555454    10A      1.936853  

    Final Occupation by Irrep:
              A 
    DOCC [     1 ]

  Energy converged.

  @RHF Final Energy:    -0.96699945270673

   => Energetics <=

    Nuclear Repulsion Energy =              0.3112807109352941
    One-Electron Energy =                  -1.7264882686242846
    Two-Electron Energy =                   0.4482081049822639
    DFT Exchange-Correlation Energy =       0.0000000000000000
    Empirical Dispersion Energy =           0.0000000000000000
    PCM Polarization Energy =               0.0000000000000000
    EFP Energy =                            0.0000000000000000
    Total Energy =                         -0.9669994527067265

    Alert: EFP and PCM quantities not currently incorporated into SCF psivars.

Properties will be evaluated at   0.000000,   0.000000,   0.000000 Bohr
  ==> Properties <==


Properties computed using the SCF density matrix

  Nuclear Dipole Moment: (a.u.)
     X:     0.0000      Y:     0.0000      Z:     0.0000

  Electronic Dipole Moment: (a.u.)
     X:    -0.0000      Y:    -0.0000      Z:    -0.0000

  Dipole Moment: (a.u.)
     X:    -0.0000      Y:    -0.0000      Z:    -0.0000     Total:     0.0000

  Dipole Moment: (Debye)
     X:    -0.0000      Y:    -0.0000      Z:    -0.0000     Total:     0.0000


  Saving occupied orbitals to File 180.

*** tstop() called on Kevins-MacBook-Pro.local at Fri Apr 10 18:02:10 2015
Module time:
	user time   =       0.20 seconds =       0.00 minutes
	system time =       0.01 seconds =       0.00 minutes
	total time  =          1 seconds =       0.02 minutes
Total time:
	user time   =       0.41 seconds =       0.01 minutes
	system time =       0.02 seconds =       0.00 minutes
	total time  =          1 seconds =       0.02 minutes
Reading options from the SCF block
Calling plugin scf.so.
    Molecular point group: c1
    Full point group: D_inf_h

    Geometry (in Angstrom), charge = 0, multiplicity = 1:

       Center              X                  Y                   Z       
    ------------   -----------------  -----------------  -----------------
           H          0.000000000000     0.000000000000    -0.850000000000
           H          0.000000000000     0.000000000000     0.850000000000


    Nuclear repulsion energy:       0.31128071

  ## Overlap (Symmetry 0) ##
  Irrep: 1 Size: 10 x 10

                 1                   2                   3                   4                   5

    1     1.00000000000000     0.68486025149275     0.00000000000000     0.00000000000000     0.00000000000000
    2     0.68486025149275     1.00000000000000     0.00000000000000     0.00000000000000     0.00000000000000
    3     0.00000000000000     0.00000000000000     1.00000000000000     0.00000000000000     0.00000000000000
    4     0.00000000000000     0.00000000000000     0.00000000000000     1.00000000000000     0.00000000000000
    5     0.00000000000000     0.00000000000000     0.00000000000000     0.00000000000000     1.00000000000000
    6     0.07310628213292     0.24971458296946     0.09715051691482     0.00000000000000     0.00000000000000
    7     0.24971458296946     0.53283523845835     0.15738505879309     0.00000000000000     0.00000000000000
    8    -0.09715051691482    -0.15738505879309    -0.15271119536459     0.00000000000000     0.00000000000000
    9     0.00000000000000     0.00000000000000     0.00000000000000     0.02348350078718     0.00000000000000
   10     0.00000000000000     0.00000000000000     0.00000000000000     0.00000000000000     0.02348350078718

                 6                   7                   8                   9                  10

    1     0.07310628213292     0.24971458296946    -0.09715051691482     0.00000000000000     0.00000000000000
    2     0.24971458296946     0.53283523845835    -0.15738505879309     0.00000000000000     0.00000000000000
    3     0.09715051691482     0.15738505879309    -0.15271119536459     0.00000000000000     0.00000000000000
    4     0.00000000000000     0.00000000000000     0.00000000000000     0.02348350078718     0.00000000000000
    5     0.00000000000000     0.00000000000000     0.00000000000000     0.00000000000000     0.02348350078718
    6     1.00000000000000     0.68486025149275    -0.00000000000000     0.00000000000000     0.00000000000000
    7     0.68486025149275     1.00000000000000     0.00000000000000     0.00000000000000     0.00000000000000
    8    -0.00000000000000     0.00000000000000     1.00000000000000     0.00000000000000     0.00000000000000
    9     0.00000000000000     0.00000000000000     0.00000000000000     1.00000000000000     0.00000000000000
   10     0.00000000000000     0.00000000000000     0.00000000000000     0.00000000000000     1.00000000000000



  ## Kinetic (Symmetry 0) ##
  Irrep: 1 Size: 10 x 10

                 1                   2                   3                   4                   5

    1     0.96945722711242     0.20123413106538    -0.00000000000000     0.00000000000000     0.00000000000000
    2     0.20123413106538     0.18300000000000     0.00000000000000     0.00000000000000     0.00000000000000
    3    -0.00000000000000     0.00000000000000     1.81750000000000     0.00000000000000     0.00000000000000
    4     0.00000000000000     0.00000000000000     0.00000000000000     1.81750000000000     0.00000000000000
    5     0.00000000000000     0.00000000000000     0.00000000000000     0.00000000000000     1.81750000000000
    6    -0.03403521389444     0.02385548872617    -0.02863938859543     0.00000000000000     0.00000000000000
    7     0.02385548872617     0.05658483836552     0.04675538064394     0.00000000000000     0.00000000000000
    8     0.02863938859543    -0.04675538064394     0.01084453438543     0.00000000000000     0.00000000000000
    9     0.00000000000000     0.00000000000000     0.00000000000000    -0.02136550937047     0.00000000000000
   10     0.00000000000000     0.00000000000000     0.00000000000000     0.00000000000000    -0.02136550937047

                 6                   7                   8                   9                  10

    1    -0.03403521389444     0.02385548872617     0.02863938859543     0.00000000000000     0.00000000000000
    2     0.02385548872617     0.05658483836552    -0.04675538064394     0.00000000000000     0.00000000000000
    3    -0.02863938859543     0.04675538064394     0.01084453438543     0.00000000000000     0.00000000000000
    4     0.00000000000000     0.00000000000000     0.00000000000000    -0.02136550937047     0.00000000000000
    5     0.00000000000000     0.00000000000000     0.00000000000000     0.00000000000000    -0.02136550937047
    6     0.96945722711242     0.20123413106538     0.00000000000000     0.00000000000000     0.00000000000000
    7     0.20123413106538     0.18300000000000     0.00000000000000     0.00000000000000     0.00000000000000
    8     0.00000000000000     0.00000000000000     1.81750000000000     0.00000000000000     0.00000000000000
    9     0.00000000000000     0.00000000000000     0.00000000000000     1.81750000000000     0.00000000000000
   10     0.00000000000000     0.00000000000000     0.00000000000000     0.00000000000000     1.81750000000000



  ## Potential (Symmetry 0) ##
  Irrep: 1 Size: 10 x 10

                 1                   2                   3                   4                   5

    1    -1.68913871471642    -0.86277268200583    -0.06095822800768     0.00000000000000     0.00000000000000
    2    -0.86277268200583    -0.86093266113197    -0.05715162301594     0.00000000000000     0.00000000000000
    3    -0.06095822800768    -0.05715162301594    -1.23910510266383     0.00000000000000     0.00000000000000
    4     0.00000000000000     0.00000000000000     0.00000000000000    -1.20798957931166     0.00000000000000
    5     0.00000000000000     0.00000000000000     0.00000000000000     0.00000000000000    -1.20798957931166
    6    -0.09184642793489    -0.31260747140433    -0.11764587071470     0.00000000000000     0.00000000000000
    7    -0.31260747140433    -0.48973931164328    -0.18888302935580     0.00000000000000     0.00000000000000
    8     0.11764587071470     0.18888302935580     0.18312740054859     0.00000000000000     0.00000000000000
    9     0.00000000000000     0.00000000000000     0.00000000000000    -0.02538661790008     0.00000000000000
   10     0.00000000000000     0.00000000000000     0.00000000000000     0.00000000000000    -0.02538661790008

                 6                   7                   8                   9                  10

    1    -0.09184642793489    -0.31260747140433     0.11764587071470     0.00000000000000     0.00000000000000
    2    -0.31260747140433    -0.48973931164328     0.18888302935580     0.00000000000000     0.00000000000000
    3    -0.11764587071470    -0.18888302935580     0.18312740054859     0.00000000000000     0.00000000000000
    4     0.00000000000000     0.00000000000000     0.00000000000000    -0.02538661790008     0.00000000000000
    5     0.00000000000000     0.00000000000000     0.00000000000000     0.00000000000000    -0.02538661790008
    6    -1.68913871471642    -0.86277268200583     0.06095822800768     0.00000000000000     0.00000000000000
    7    -0.86277268200583    -0.86093266113197     0.05715162301594     0.00000000000000     0.00000000000000
    8     0.06095822800768     0.05715162301594    -1.23910510266383     0.00000000000000     0.00000000000000
    9     0.00000000000000     0.00000000000000     0.00000000000000    -1.20798957931166     0.00000000000000
   10     0.00000000000000     0.00000000000000     0.00000000000000     0.00000000000000    -1.20798957931166



  ## One Electron Ints (Symmetry 0) ##
  Irrep: 1 Size: 10 x 10

                 1                   2                   3                   4                   5

    1    -0.71968148760400    -0.66153855094044    -0.06095822800768     0.00000000000000     0.00000000000000
    2    -0.66153855094044    -0.67793266113197    -0.05715162301594     0.00000000000000     0.00000000000000
    3    -0.06095822800768    -0.05715162301594     0.57839489733617     0.00000000000000     0.00000000000000
    4     0.00000000000000     0.00000000000000     0.00000000000000     0.60951042068834     0.00000000000000
    5     0.00000000000000     0.00000000000000     0.00000000000000     0.00000000000000     0.60951042068834
    6    -0.12588164182932    -0.28875198267816    -0.14628525931013     0.00000000000000     0.00000000000000
    7    -0.28875198267816    -0.43315447327776    -0.14212764871187     0.00000000000000     0.00000000000000
    8     0.14628525931013     0.14212764871187     0.19397193493402     0.00000000000000     0.00000000000000
    9     0.00000000000000     0.00000000000000     0.00000000000000    -0.04675212727054     0.00000000000000
   10     0.00000000000000     0.00000000000000     0.00000000000000     0.00000000000000    -0.04675212727054

                 6                   7                   8                   9                  10

    1    -0.12588164182932    -0.28875198267816     0.14628525931013     0.00000000000000     0.00000000000000
    2    -0.28875198267816    -0.43315447327776     0.14212764871187     0.00000000000000     0.00000000000000
    3    -0.14628525931013    -0.14212764871187     0.19397193493402     0.00000000000000     0.00000000000000
    4     0.00000000000000     0.00000000000000     0.00000000000000    -0.04675212727054     0.00000000000000
    5     0.00000000000000     0.00000000000000     0.00000000000000     0.00000000000000    -0.04675212727054
    6    -0.71968148760400    -0.66153855094044     0.06095822800768     0.00000000000000     0.00000000000000
    7    -0.66153855094044    -0.67793266113197     0.05715162301594     0.00000000000000     0.00000000000000
    8     0.06095822800768     0.05715162301594     0.57839489733617     0.00000000000000     0.00000000000000
    9     0.00000000000000     0.00000000000000     0.00000000000000     0.60951042068834     0.00000000000000
   10     0.00000000000000     0.00000000000000     0.00000000000000     0.00000000000000     0.60951042068834




	There are 0 unique integrals

  ## Fock (Symmetry 0) ##
  Irrep: 1 Size: 10 x 10

                 1                   2                   3                   4                   5

    1    -0.47967775228011    -0.35723775014853    -0.06015432833956     0.00000000000000     0.00000000000000
    2    -0.35723775014853    -0.32424286930289     0.08012029834844     0.00000000000000     0.00000000000000
    3    -0.06015432833956     0.08012029834844     0.66760714645353     0.00000000000000     0.00000000000000
    4     0.00000000000000     0.00000000000000     0.00000000000000     0.61094524521846     0.00000000000000
    5     0.00000000000000     0.00000000000000     0.00000000000000     0.00000000000000     0.61094524521846
    6     0.00613086647269    -0.04348845565296    -0.06466168096212     0.00000000000000     0.00000000000000
    7    -0.04348845565296    -0.11707466717046    -0.15811162197100     0.00000000000000     0.00000000000000
    8     0.06466168096212     0.15811162197100     0.31172929763457     0.00000000000000     0.00000000000000
    9     0.00000000000000     0.00000000000000     0.00000000000000    -0.06109926041755    -0.00000000000000
   10     0.00000000000000     0.00000000000000     0.00000000000000     0.00000000000000    -0.06109926041755

                 6                   7                   8                   9                  10

    1     0.00613086647269    -0.04348845565296     0.06466168096212     0.00000000000000     0.00000000000000
    2    -0.04348845565296    -0.11707466717046     0.15811162197100     0.00000000000000     0.00000000000000
    3    -0.06466168096212    -0.15811162197100     0.31172929763457     0.00000000000000     0.00000000000000
    4     0.00000000000000     0.00000000000000     0.00000000000000    -0.06109926041755     0.00000000000000
    5     0.00000000000000     0.00000000000000     0.00000000000000    -0.00000000000000    -0.06109926041755
    6    -0.47967775228011    -0.35723775014853     0.06015432833956     0.00000000000000     0.00000000000000
    7    -0.35723775014853    -0.32424286930289    -0.08012029834844     0.00000000000000     0.00000000000000
    8     0.06015432833956    -0.08012029834844     0.66760714645353     0.00000000000000     0.00000000000000
    9     0.00000000000000     0.00000000000000     0.00000000000000     0.61094524521846     0.00000000000000
   10     0.00000000000000     0.00000000000000     0.00000000000000     0.00000000000000     0.61094524521846



  ## C (Symmetry 0) ##
  Irrep: 1 Size: 10 x 10

                 1                   2                   3                   4                   5

    1     0.34409098119233     0.40316753867149     0.13793072466516     0.01332324950953    -0.02863573268223
    2     0.56015933117833     0.36328707397300    -0.13422557784803     0.15832709098357     0.24215657938735
    3    -0.46136101994021     0.54814596047110    -0.05412024104311     0.06812583862375     0.04295927409977
    4    -0.40112304401989     0.56761638257395    -0.13083903638129     0.00462469326458     0.00689884857437
    5    -0.09273348633329    -0.02292947561332     0.69264835704591     0.00000000000000     0.00000000000000
    6     0.03407382711257     0.02513222625663     0.00022378733533     0.98081623309488     0.16052302676418
    7    -0.17520983229682    -0.20962961044311     0.03282491044241    -0.65407845585887    -0.91253677991423
    8     0.02399476361454     0.09045253007548    -0.01055308018285     0.61861873355935    -0.36037598250005
    9     0.00471053618507    -0.00666572900564     0.00153649117018    -0.39381313868829    -0.58746754756989
   10    -0.02597861172451     0.14077304981031     0.68439394140933     0.00000000000000    -0.00000000000000

                 6                   7                   8                   9                  10

    1     0.97606342009805     0.83525619900089    -0.07496705318766     0.01097832240059    -0.02706379375797
    2    -1.17490289598725    -0.82299996509828    -0.03863937849946     0.02684181422430     0.33029868995339
    3    -0.53644124739186     0.49681252739768     0.04663996740347    -0.03448643052055     0.11174615423775
    4     0.40112304401989    -0.56761638257395    -0.13083903638129    -0.00462469326458    -0.00689884857437
    5    -0.09336930404221    -0.01962904479557    -0.70891582427447     0.00000000000000    -0.00000000000000
    6    -0.00592837599153    -0.00221785625551    -0.00420922312267     0.96948910863379     0.16811624694253
    7     0.31816753155363     0.12769960054610     0.01633047726042    -0.57827614743909    -0.96335140809599
    8    -0.10623800490433     0.00141051017704    -0.00242206358580    -0.58436983305557     0.44605614329901
    9    -0.00471053618507     0.00666572900564     0.00153649117018     0.39381313868829     0.58746754756989
   10     0.02816408558665    -0.14027326937296     0.70085302769280     0.00000000000000     0.00000000000000




 In Bisection function HOMO = -0.875  LUMO =  1.027

 0.07607 = (-0.87535 + 1.02749)/2.0
 sum -  nocc_ = 3.00000000
 On Iteration in Bisection 0
 a: 3.00000  b:-0.50000

 -0.39964 = (-0.87535 + 0.07607)/2.0
 sum -  nocc_ = 1.00000000
 On Iteration in Bisection 1
 a: 1.00000  b:-0.50000

 -0.63749 = (-0.87535 + -0.39964)/2.0
 sum -  nocc_ = 1.00000000
 On Iteration in Bisection 2
 a: 1.00000  b:-0.50000

 -0.75642 = (-0.87535 + -0.63749)/2.0
 sum -  nocc_ = 0.00000000
 ef = -0.75642 sum = 1.00000 

 Iter: 0  T:      100.000  val:-0.756422  sumni 0.00000
 ne = 1.0000

Nuc Replusion =       0.311280710935
 1st iteration =      -0.403236505819
 In Bisection function HOMO = -0.304  LUMO =  1.985

 0.84075 = (-0.30382 + 1.98532)/2.0
 sum -  nocc_ = 2.00000000
 On Iteration in Bisection 0
 a: 2.00000  b:-0.50000

 0.26846 = (-0.30382 + 0.84075)/2.0
 sum -  nocc_ = 1.00000000
 On Iteration in Bisection 1
 a: 1.00000  b:-0.50000

 -0.01768 = (-0.30382 + 0.26846)/2.0
 sum -  nocc_ = 0.00000000
 ef = -0.01768 sum = 1.00000 

 Iter: 0  T:      100.000  val:-0.017680  sumni 0.00000
 ne = 1.0000

 iter:1  failiter:1  energy:     -1.120412763239  total:     -0.809132052304  error:     -0.153413310533
 In Bisection function HOMO = -0.334  LUMO =  2.038

 0.85215 = (-0.33365 + 2.03796)/2.0
 sum -  nocc_ = 2.00000000
 On Iteration in Bisection 0
 a: 2.00000  b:-0.50000

 0.25925 = (-0.33365 + 0.85215)/2.0
 sum -  nocc_ = 1.00000000
 On Iteration in Bisection 1
 a: 1.00000  b:-0.50000

 -0.03720 = (-0.33365 + 0.25925)/2.0
 sum -  nocc_ = 1.00000000
 On Iteration in Bisection 2
 a: 1.00000  b:-0.50000

 -0.18543 = (-0.33365 + -0.03720)/2.0
 sum -  nocc_ = 0.00000000
 ef = -0.18543 sum = 1.00000 

 Iter: 1  T:      100.000  val:-0.185427  sumni 0.00000
 ne = 1.0000

 iter:2  failiter:2  energy:     -1.194974116959  total:     -0.883693406024  error:     -0.074561353719
 In Bisection function HOMO = -0.412  LUMO =  1.943

 0.76566 = (-0.41183 + 1.94315)/2.0
 sum -  nocc_ = 3.00000000
 On Iteration in Bisection 0
 a: 3.00000  b:-0.50000

 0.17692 = (-0.41183 + 0.76566)/2.0
 sum -  nocc_ = 1.00000000
 On Iteration in Bisection 1
 a: 1.00000  b:-0.50000

 -0.11746 = (-0.41183 + 0.17692)/2.0
 sum -  nocc_ = 0.00000000
 ef = -0.11746 sum = 1.00000 

 Iter: 2  T:      100.000  val:-0.117457  sumni 0.00000
 ne = 1.0000

 iter:3  failiter:3  energy:     -1.275125951847  total:     -0.963845240911  error:     -0.080151834888
 In Bisection function HOMO = -0.415  LUMO =  1.937

 0.76119 = (-0.41489 + 1.93727)/2.0
 sum -  nocc_ = 3.00000000
 On Iteration in Bisection 0
 a: 3.00000  b:-0.50000

 0.17315 = (-0.41489 + 0.76119)/2.0
 sum -  nocc_ = 1.00000000
 On Iteration in Bisection 1
 a: 1.00000  b:-0.50000

 -0.12087 = (-0.41489 + 0.17315)/2.0
 sum -  nocc_ = 0.00000000
 ef = -0.12087 sum = 1.00000 

 Iter: 3  T:      100.000  val:-0.120873  sumni 0.00000
 ne = 1.0000

 iter:4  failiter:4  energy:     -1.278173773655  total:     -0.966893062720  error:     -0.003047821809
 In Bisection function HOMO = -0.415  LUMO =  1.937

 0.76098 = (-0.41500 + 1.93696)/2.0
 sum -  nocc_ = 3.00000000
 On Iteration in Bisection 0
 a: 3.00000  b:-0.50000

 0.17299 = (-0.41500 + 0.76098)/2.0
 sum -  nocc_ = 1.00000000
 On Iteration in Bisection 1
 a: 1.00000  b:-0.50000

 -0.12100 = (-0.41500 + 0.17299)/2.0
 sum -  nocc_ = 0.00000000
 ef = -0.12100 sum = 1.00000 

 Iter: 4  T:      100.000  val:-0.121003  sumni 0.00000
 ne = 1.0000

 iter:5  failiter:5  energy:     -1.278251978697  total:     -0.966971267762  error:     -0.000078205041
 In Bisection function HOMO = -0.415  LUMO =  1.937

 0.76093 = (-0.41503 + 1.93688)/2.0
 sum -  nocc_ = 3.00000000
 On Iteration in Bisection 0
 a: 3.00000  b:-0.50000

 0.17295 = (-0.41503 + 0.76093)/2.0
 sum -  nocc_ = 1.00000000
 On Iteration in Bisection 1
 a: 1.00000  b:-0.50000

 -0.12104 = (-0.41503 + 0.17295)/2.0
 sum -  nocc_ = 0.00000000
 ef = -0.12104 sum = 1.00000 

 Iter: 5  T:      100.000  val:-0.121038  sumni 0.00000
 ne = 1.0000

 iter:6  failiter:6  energy:     -1.278272425689  total:     -0.966991714754  error:     -0.000020446992
 In Bisection function HOMO = -0.415  LUMO =  1.937

 0.76091 = (-0.41503 + 1.93686)/2.0
 sum -  nocc_ = 3.00000000
 On Iteration in Bisection 0
 a: 3.00000  b:-0.50000

 0.17294 = (-0.41503 + 0.76091)/2.0
 sum -  nocc_ = 1.00000000
 On Iteration in Bisection 1
 a: 1.00000  b:-0.50000

 -0.12105 = (-0.41503 + 0.17294)/2.0
 sum -  nocc_ = 0.00000000
 ef = -0.12105 sum = 1.00000 

 Iter: 6  T:      100.000  val:-0.121047  sumni 0.00000
 ne = 1.0000

 iter:7  failiter:7  energy:     -1.278278323709  total:     -0.966997612774  error:     -0.000005898020
 In Bisection function HOMO = -0.415  LUMO =  1.937

 0.76091 = (-0.41504 + 1.93685)/2.0
 sum -  nocc_ = 3.00000000
 On Iteration in Bisection 0
 a: 3.00000  b:-0.50000

 0.17294 = (-0.41504 + 0.76091)/2.0
 sum -  nocc_ = 1.00000000
 On Iteration in Bisection 1
 a: 1.00000  b:-0.50000

 -0.12105 = (-0.41504 + 0.17294)/2.0
 sum -  nocc_ = 0.00000000
 ef = -0.12105 sum = 1.00000 

 Iter: 7  T:      100.000  val:-0.121049  sumni 0.00000
 ne = 1.0000

 iter:8  failiter:8  energy:     -1.278279759013  total:     -0.966999048077  error:     -0.000001435304
 In Bisection function HOMO = -0.415  LUMO =  1.937

 0.76091 = (-0.41504 + 1.93685)/2.0
 sum -  nocc_ = 3.00000000
 On Iteration in Bisection 0
 a: 3.00000  b:-0.50000

 0.17294 = (-0.41504 + 0.76091)/2.0
 sum -  nocc_ = 1.00000000
 On Iteration in Bisection 1
 a: 1.00000  b:-0.50000

 -0.12105 = (-0.41504 + 0.17294)/2.0
 sum -  nocc_ = 0.00000000
 ef = -0.12105 sum = 1.00000 

 Iter: 8  T:      100.000  val:-0.121050  sumni 0.00000
 ne = 1.0000

 iter:9  failiter:9  energy:     -1.278280078493  total:     -0.966999367558  error:     -0.000000319481
 In Bisection function HOMO = -0.415  LUMO =  1.937

 0.76091 = (-0.41504 + 1.93685)/2.0
 sum -  nocc_ = 3.00000000
 On Iteration in Bisection 0
 a: 3.00000  b:-0.50000

 0.17294 = (-0.41504 + 0.76091)/2.0
 sum -  nocc_ = 1.00000000
 On Iteration in Bisection 1
 a: 1.00000  b:-0.50000

 -0.12105 = (-0.41504 + 0.17294)/2.0
 sum -  nocc_ = 0.00000000
 ef = -0.12105 sum = 1.00000 

 Iter: 9  T:      100.000  val:-0.121050  sumni 0.00000
 ne = 1.0000

 iter:10  failiter:10  energy:     -1.278280146205  total:     -0.966999435269  error:     -0.000000067711
 In Bisection function HOMO = -0.415  LUMO =  1.937

 0.76091 = (-0.41504 + 1.93685)/2.0
 sum -  nocc_ = 3.00000000
 On Iteration in Bisection 0
 a: 3.00000  b:-0.50000

 0.17294 = (-0.41504 + 0.76091)/2.0
 sum -  nocc_ = 1.00000000
 On Iteration in Bisection 1
 a: 1.00000  b:-0.50000

 -0.12105 = (-0.41504 + 0.17294)/2.0
 sum -  nocc_ = 0.00000000
 ef = -0.12105 sum = 1.00000 

 Iter: 10  T:      100.000  val:-0.121050  sumni 0.00000
 ne = 1.0000

 iter:11  failiter:11  energy:     -1.278280160134  total:     -0.966999449199  error:     -0.000000013929
 In Bisection function HOMO = -0.415  LUMO =  1.937

 0.76091 = (-0.41504 + 1.93685)/2.0
 sum -  nocc_ = 3.00000000
 On Iteration in Bisection 0
 a: 3.00000  b:-0.50000

 0.17294 = (-0.41504 + 0.76091)/2.0
 sum -  nocc_ = 1.00000000
 On Iteration in Bisection 1
 a: 1.00000  b:-0.50000

 -0.12105 = (-0.41504 + 0.17294)/2.0
 sum -  nocc_ = 0.00000000
 ef = -0.12105 sum = 1.00000 

 Iter: 11  T:      100.000  val:-0.121050  sumni 0.00000
 ne = 1.0000

 iter:12  failiter:12  energy:     -1.278280162945  total:     -0.966999452009  error:     -0.000000002811
 In Bisection function HOMO = -0.415  LUMO =  1.937

 0.76091 = (-0.41504 + 1.93685)/2.0
 sum -  nocc_ = 3.00000000
 On Iteration in Bisection 0
 a: 3.00000  b:-0.50000

 0.17294 = (-0.41504 + 0.76091)/2.0
 sum -  nocc_ = 1.00000000
 On Iteration in Bisection 1
 a: 1.00000  b:-0.50000

 -0.12105 = (-0.41504 + 0.17294)/2.0
 sum -  nocc_ = 0.00000000
 ef = -0.12105 sum = 1.00000 

 Iter: 12  T:      100.000  val:-0.121050  sumni 0.00000
 ne = 1.0000

 iter:13  failiter:13  energy:     -1.278280163505  total:     -0.966999452569  error:     -0.000000000560
 In Bisection function HOMO = -0.415  LUMO =  1.937

 0.76091 = (-0.41504 + 1.93685)/2.0
 sum -  nocc_ = 3.00000000
 On Iteration in Bisection 0
 a: 3.00000  b:-0.50000

 0.17294 = (-0.41504 + 0.76091)/2.0
 sum -  nocc_ = 1.00000000
 On Iteration in Bisection 1
 a: 1.00000  b:-0.50000

 -0.12105 = (-0.41504 + 0.17294)/2.0
 sum -  nocc_ = 0.00000000
 ef = -0.12105 sum = 1.00000 

 Iter: 13  T:      100.000  val:-0.121050  sumni 0.00000
 ne = 1.0000

 iter:14  failiter:14  energy:     -1.278280163615  total:     -0.966999452680  error:     -0.000000000111
 In Bisection function HOMO = -0.415  LUMO =  1.937

 0.76091 = (-0.41504 + 1.93685)/2.0
 sum -  nocc_ = 3.00000000
 On Iteration in Bisection 0
 a: 3.00000  b:-0.50000

 0.17294 = (-0.41504 + 0.76091)/2.0
 sum -  nocc_ = 1.00000000
 On Iteration in Bisection 1
 a: 1.00000  b:-0.50000

 -0.12105 = (-0.41504 + 0.17294)/2.0
 sum -  nocc_ = 0.00000000
 ef = -0.12105 sum = 1.00000 

 Iter: 14  T:      100.000  val:-0.121050  sumni 0.00000
 ne = 1.0000

 iter:15  failiter:15  energy:     -1.278280163637  total:     -0.966999452701  error:     -0.000000000022
 In Bisection function HOMO = -0.415  LUMO =  1.937

 0.76091 = (-0.41504 + 1.93685)/2.0
 sum -  nocc_ = 3.00000000
 On Iteration in Bisection 0
 a: 3.00000  b:-0.50000

 0.17294 = (-0.41504 + 0.76091)/2.0
 sum -  nocc_ = 1.00000000
 On Iteration in Bisection 1
 a: 1.00000  b:-0.50000

 -0.12105 = (-0.41504 + 0.17294)/2.0
 sum -  nocc_ = 0.00000000
 ef = -0.12105 sum = 1.00000 

 Iter: 15  T:      100.000  val:-0.121050  sumni 0.00000
 ne = 1.0000

 iter:16  failiter:16  energy:     -1.278280163641  total:     -0.966999452706  error:     -0.000000000004
 In Bisection function HOMO = -0.415  LUMO =  1.937

 0.76091 = (-0.41504 + 1.93685)/2.0
 sum -  nocc_ = 3.00000000
 On Iteration in Bisection 0
 a: 3.00000  b:-0.50000

 0.17294 = (-0.41504 + 0.76091)/2.0
 sum -  nocc_ = 1.00000000
 On Iteration in Bisection 1
 a: 1.00000  b:-0.50000

 -0.12105 = (-0.41504 + 0.17294)/2.0
 sum -  nocc_ = 0.00000000
 ef = -0.12105 sum = 1.00000 

 Iter: 16  T:      100.000  val:-0.121050  sumni 0.00000
 ne = 1.0000

 iter:17  failiter:17  energy:     -1.278280163642  total:     -0.966999452707  error:     -0.000000000001
 FTHFEnergy =    -0.966999
 FD_dis[0] = 1.00000000 with -0.415036 eig value
 FD_dis[1] = 0.00000000 with 0.006059 eig value
 FD_dis[2] = 0.00000000 with 0.659304 eig value
 FD_dis[3] = 0.00000000 with 0.670699 eig value
 FD_dis[4] = 0.00000000 with 1.257144 eig value
 FD_dis[5] = 0.00000000 with 1.421491 eig value
 FD_dis[6] = 0.00000000 with 1.421491 eig value
 FD_dis[7] = 0.00000000 with 1.555454 eig value
 FD_dis[8] = 0.00000000 with 1.555454 eig value
 FD_dis[9] = 0.00000000 with 1.936853 eig value
*** PSI4 exiting successfully. Buy a developer a beer!
