    -----------------------------------------------------------------------
          PSI4: An Open-Source Ab Initio Electronic Structure Package
                              PSI 4.0 Driver

               Git: Rev {master} 556e8139d3cfa1f96ccffe2cdf22cc56a185d2b2

    J. M. Turney, A. C. Simmonett, R. M. Parrish, E. G. Hohenstein,
    F. A. Evangelista, J. T. Fermann, B. J. Mintz, L. A. Burns, J. J. Wilke,
    M. L. Abrams, N. J. Russ, M. L. Leininger, C. L. Janssen, E. T. Seidl,
    W. D. Allen, H. F. Schaefer, R. A. King, E. F. Valeev, C. D. Sherrill,
    and T. D. Crawford, WIREs Comput. Mol. Sci. 2, 556-565 (2012)
    (doi: 10.1002/wcms.93)

                         Additional Contributions by
    A. E. DePrince, M. Saitow, U. Bozkaya, A. Yu. Sokolov
    -----------------------------------------------------------------------

    Process ID:  11932
    PSI4DATADIR: /Users/kevinhannon/Programs/psi4cmake/psi4/lib
    Memory level set to 256.000 MB

  ==> Input File <==

--------------------------------------------------------------------------

# PYTHONPATH must include directory above plugin directory.
#     Define either externally or here, then import plugin.
sys.path.insert(0, '/Users/kevinhannon/Programs/Quantum_Programs/Quantum-Programs/GS/')
import scf

molecule {
0 1
H
H 1 0.70000
symmetry c1
units angstrom
}


set {
  basis cc-pvdz
  reference rhf
  scf_type  pk
}

set scf {
  DO_FTHF true
  MAX_ITER 130
  MAX_TEMP 100
  TEMP_INCREMENT 0
  bisect  true
  bisect_iter  40
}
energy('rhf')

energy('scf')


--------------------------------------------------------------------------

*** tstart() called on Kevins-MacBook-Pro.local
*** at Fri Apr 10 18:02:03 2015

/Users/kevinhannon/Programs/Quantum_Programs/Quantum-Programs/GS/scf/scf.so loaded.

*** tstart() called on Kevins-MacBook-Pro.local
*** at Fri Apr 10 18:02:03 2015


         ---------------------------------------------------------
                                   SCF
            by Justin Turney, Rob Parrish, and Andy Simmonett
                              RHF Reference
                        1 Threads,    256 MiB Core
         ---------------------------------------------------------

  ==> Geometry <==

    Molecular point group: c1
    Full point group: D_inf_h

    Geometry (in Angstrom), charge = 0, multiplicity = 1:

       Center              X                  Y                   Z       
    ------------   -----------------  -----------------  -----------------
           H          0.000000000000     0.000000000000    -0.350000000000
           H          0.000000000000     0.000000000000     0.350000000000

  Running in c1 symmetry.

  Rotational constants: A = ************  B =     68.27242  C =     68.27242 [cm^-1]
  Rotational constants: A = ************  B = 2046755.52137  C = 2046755.52137 [MHz]
  Nuclear repulsion =    0.755967440842857

  Charge       = 0
  Multiplicity = 1
  Electrons    = 2
  Nalpha       = 1
  Nbeta        = 1

  ==> Algorithm <==

  SCF Algorithm Type is PK.
  DIIS enabled.
  MOM disabled.
  Fractional occupation disabled.
  Guess Type is CORE.
  Energy threshold   = 1.00e-06
  Density threshold  = 1.00e-06
  Integral threshold = 0.00e+00

  ==> Primary Basis <==

  Basis Set: CC-PVDZ
    Number of shells: 6
    Number of basis function: 10
    Number of Cartesian functions: 10
    Spherical Harmonics?: true
    Max angular momentum: 1

  ==> Pre-Iterations <==

   -------------------------------------------------------
    Irrep   Nso     Nmo     Nalpha   Nbeta   Ndocc  Nsocc
   -------------------------------------------------------
     A         10      10       0       0       0       0
   -------------------------------------------------------
    Total      10      10       1       1       1       0
   -------------------------------------------------------

  Starting with a DF guess...

 OEINTS: Overlap, kinetic, potential, dipole, and quadrupole integrals
         stored in file 35.

  ==> Integral Setup <==

  ==> DFJK: Density-Fitted J/K Matrices <==

    J tasked:                  Yes
    K tasked:                  Yes
    wK tasked:                  No
    OpenMP threads:              1
    Integrals threads:           1
    Memory (MB):               183
    Algorithm:                Core
    Integral Cache:           NONE
    Schwarz Cutoff:          1E-12
    Fitting Condition:       1E-12

   => Auxiliary Basis Set <=

  Basis Set: 
    Number of shells: 18
    Number of basis function: 46
    Number of Cartesian functions: 50
    Spherical Harmonics?: true
    Max angular momentum: 2

  Minimum eigenvalue in the overlap matrix is 3.4676186799E-02.
  Using Symmetric Orthogonalization.
  SCF Guess: Core (One-Electron) Hamiltonian.

  ==> Iterations <==

                           Total Energy        Delta E     RMS |[F,P]|

   @DF-RHF iter   1:    -1.07306373371823   -1.07306e+00   2.26460e-02 
   @DF-RHF iter   2:    -1.12496335171238   -5.18996e-02   4.21957e-03 DIIS
   @DF-RHF iter   3:    -1.12692294409249   -1.95959e-03   2.27682e-04 DIIS
   @DF-RHF iter   4:    -1.12692576745881   -2.82337e-06   1.68864e-05 DIIS
   @DF-RHF iter   5:    -1.12692579953973   -3.20809e-08   4.10332e-08 DIIS

  DF guess converged.

  ==> Integral Setup <==

 MINTS: Wrapper to libmints.
   by Justin Turney

   Calculation information:
      Number of atoms:                   2
      Number of AO shells:               6
      Number of SO shells:               6
      Number of primitives:             10
      Number of atomic orbitals:        10
      Number of basis functions:        10

      Number of irreps:                  1
      Integral cutoff                 0.00e+00
      Number of functions per irrep: [  10 ]

 OEINTS: Overlap, kinetic, potential, dipole, and quadrupole integrals
         stored in file 35.

      Computing two-electron integrals...done
      Computed 512 non-zero two-electron integrals.
        Stored in file 33.

	Batch   1 pq = [       0,      55] index = [             0,1540]
  ==> DiskJK: Disk-Based J/K Matrices <==

    J tasked:                  Yes
    K tasked:                  Yes
    wK tasked:                  No
    Memory (MB):               183
    Schwarz Cutoff:          1E-12

   @RHF iter   6:    -1.12692469254230    1.10700e-06   2.36665e-07 DIIS
   @RHF iter   7:    -1.12692469254715   -4.84923e-12   3.65921e-08 DIIS

  ==> Post-Iterations <==

    Orbital Energies (a.u.)
    -----------------------

    Doubly Occupied:                                                      

       1A     -0.604819  

    Virtual:                                                              

       2A      0.204983     3A      0.469676     4A      0.967587  
       5A      1.297822     6A      1.297822     7A      1.994580  
       8A      2.070702     9A      2.070702    10A      3.883238  

    Final Occupation by Irrep:
              A 
    DOCC [     1 ]

  Energy converged.

  @RHF Final Energy:    -1.12692469254715

   => Energetics <=

    Nuclear Repulsion Energy =              0.7559674408428572
    One-Electron Energy =                  -2.5561470501098240
    Two-Electron Energy =                   0.6732549167198200
    DFT Exchange-Correlation Energy =       0.0000000000000000
    Empirical Dispersion Energy =           0.0000000000000000
    PCM Polarization Energy =               0.0000000000000000
    EFP Energy =                            0.0000000000000000
    Total Energy =                         -1.1269246925471470

    Alert: EFP and PCM quantities not currently incorporated into SCF psivars.

Properties will be evaluated at   0.000000,   0.000000,   0.000000 Bohr
  ==> Properties <==


Properties computed using the SCF density matrix

  Nuclear Dipole Moment: (a.u.)
     X:     0.0000      Y:     0.0000      Z:     0.0000

  Electronic Dipole Moment: (a.u.)
     X:     0.0000      Y:    -0.0000      Z:    -0.0000

  Dipole Moment: (a.u.)
     X:     0.0000      Y:    -0.0000      Z:    -0.0000     Total:     0.0000

  Dipole Moment: (Debye)
     X:     0.0000      Y:    -0.0000      Z:    -0.0000     Total:     0.0000


  Saving occupied orbitals to File 180.

*** tstop() called on Kevins-MacBook-Pro.local at Fri Apr 10 18:02:03 2015
Module time:
	user time   =       0.19 seconds =       0.00 minutes
	system time =       0.01 seconds =       0.00 minutes
	total time  =          0 seconds =       0.00 minutes
Total time:
	user time   =       0.21 seconds =       0.00 minutes
	system time =       0.01 seconds =       0.00 minutes
	total time  =          0 seconds =       0.00 minutes

*** tstart() called on Kevins-MacBook-Pro.local
*** at Fri Apr 10 18:02:03 2015


         ---------------------------------------------------------
                                   SCF
            by Justin Turney, Rob Parrish, and Andy Simmonett
                              RHF Reference
                        1 Threads,    256 MiB Core
         ---------------------------------------------------------

  ==> Geometry <==

    Molecular point group: c1
    Full point group: D_inf_h

    Geometry (in Angstrom), charge = 0, multiplicity = 1:

       Center              X                  Y                   Z       
    ------------   -----------------  -----------------  -----------------
           H          0.000000000000     0.000000000000    -0.350000000000
           H          0.000000000000     0.000000000000     0.350000000000

  Running in c1 symmetry.

  Rotational constants: A = ************  B =     68.27242  C =     68.27242 [cm^-1]
  Rotational constants: A = ************  B = 2046755.52137  C = 2046755.52137 [MHz]
  Nuclear repulsion =    0.755967440842857

  Charge       = 0
  Multiplicity = 1
  Electrons    = 2
  Nalpha       = 1
  Nbeta        = 1

  ==> Algorithm <==

  SCF Algorithm Type is PK.
  DIIS enabled.
  MOM disabled.
  Fractional occupation disabled.
  Guess Type is CORE.
  Energy threshold   = 1.00e-08
  Density threshold  = 1.00e-08
  Integral threshold = 0.00e+00

  ==> Primary Basis <==

  Basis Set: CC-PVDZ
    Number of shells: 6
    Number of basis function: 10
    Number of Cartesian functions: 10
    Spherical Harmonics?: true
    Max angular momentum: 1

  ==> Pre-Iterations <==

   -------------------------------------------------------
    Irrep   Nso     Nmo     Nalpha   Nbeta   Ndocc  Nsocc
   -------------------------------------------------------
     A         10      10       0       0       0       0
   -------------------------------------------------------
    Total      10      10       1       1       1       0
   -------------------------------------------------------

  Starting with a DF guess...

 OEINTS: Overlap, kinetic, potential, dipole, and quadrupole integrals
         stored in file 35.

  ==> Integral Setup <==

  ==> DFJK: Density-Fitted J/K Matrices <==

    J tasked:                  Yes
    K tasked:                  Yes
    wK tasked:                  No
    OpenMP threads:              1
    Integrals threads:           1
    Memory (MB):               183
    Algorithm:                Core
    Integral Cache:           NONE
    Schwarz Cutoff:          1E-12
    Fitting Condition:       1E-12

   => Auxiliary Basis Set <=

  Basis Set: 
    Number of shells: 18
    Number of basis function: 46
    Number of Cartesian functions: 50
    Spherical Harmonics?: true
    Max angular momentum: 2

  Minimum eigenvalue in the overlap matrix is 3.4676186799E-02.
  Using Symmetric Orthogonalization.
  SCF Guess: Core (One-Electron) Hamiltonian.

  ==> Iterations <==

                           Total Energy        Delta E     RMS |[F,P]|

   @DF-RHF iter   1:    -1.07306373371823   -1.07306e+00   2.26460e-02 
   @DF-RHF iter   2:    -1.12496335171238   -5.18996e-02   4.21957e-03 DIIS
   @DF-RHF iter   3:    -1.12692294409249   -1.95959e-03   2.27682e-04 DIIS
   @DF-RHF iter   4:    -1.12692576745881   -2.82337e-06   1.68864e-05 DIIS
   @DF-RHF iter   5:    -1.12692579953973   -3.20809e-08   4.10332e-08 DIIS
   @DF-RHF iter   6:    -1.12692579953992   -1.88738e-13   4.44561e-11 DIIS

  DF guess converged.

  ==> Integral Setup <==

 MINTS: Wrapper to libmints.
   by Justin Turney

   Calculation information:
      Number of atoms:                   2
      Number of AO shells:               6
      Number of SO shells:               6
      Number of primitives:             10
      Number of atomic orbitals:        10
      Number of basis functions:        10

      Number of irreps:                  1
      Integral cutoff                 0.00e+00
      Number of functions per irrep: [  10 ]

 OEINTS: Overlap, kinetic, potential, dipole, and quadrupole integrals
         stored in file 35.

      Computing two-electron integrals...done
      Computed 512 non-zero two-electron integrals.
        Stored in file 33.

	Batch   1 pq = [       0,      55] index = [             0,1540]
  ==> DiskJK: Disk-Based J/K Matrices <==

    J tasked:                  Yes
    K tasked:                  Yes
    wK tasked:                  No
    Memory (MB):               183
    Schwarz Cutoff:          1E-12

   @RHF iter   7:    -1.12692469254230    1.10700e-06   2.36626e-07 DIIS
   @RHF iter   8:    -1.12692469254715   -4.84790e-12   3.65848e-08 DIIS
   @RHF iter   9:    -1.12692469254728   -1.37668e-13   1.87084e-09 DIIS

  ==> Post-Iterations <==

    Orbital Energies (a.u.)
    -----------------------

    Doubly Occupied:                                                      

       1A     -0.604819  

    Virtual:                                                              

       2A      0.204983     3A      0.469676     4A      0.967587  
       5A      1.297822     6A      1.297822     7A      1.994580  
       8A      2.070702     9A      2.070702    10A      3.883238  

    Final Occupation by Irrep:
              A 
    DOCC [     1 ]

  Energy converged.

  @RHF Final Energy:    -1.12692469254728

   => Energetics <=

    Nuclear Repulsion Energy =              0.7559674408428572
    One-Electron Energy =                  -2.5561468727322820
    Two-Electron Energy =                   0.6732547393421406
    DFT Exchange-Correlation Energy =       0.0000000000000000
    Empirical Dispersion Energy =           0.0000000000000000
    PCM Polarization Energy =               0.0000000000000000
    EFP Energy =                            0.0000000000000000
    Total Energy =                         -1.1269246925472842

    Alert: EFP and PCM quantities not currently incorporated into SCF psivars.

Properties will be evaluated at   0.000000,   0.000000,   0.000000 Bohr
  ==> Properties <==


Properties computed using the SCF density matrix

  Nuclear Dipole Moment: (a.u.)
     X:     0.0000      Y:     0.0000      Z:     0.0000

  Electronic Dipole Moment: (a.u.)
     X:    -0.0000      Y:     0.0000      Z:    -0.0000

  Dipole Moment: (a.u.)
     X:    -0.0000      Y:     0.0000      Z:    -0.0000     Total:     0.0000

  Dipole Moment: (Debye)
     X:    -0.0000      Y:     0.0000      Z:    -0.0000     Total:     0.0000


  Saving occupied orbitals to File 180.

*** tstop() called on Kevins-MacBook-Pro.local at Fri Apr 10 18:02:03 2015
Module time:
	user time   =       0.19 seconds =       0.00 minutes
	system time =       0.01 seconds =       0.00 minutes
	total time  =          0 seconds =       0.00 minutes
Total time:
	user time   =       0.41 seconds =       0.01 minutes
	system time =       0.02 seconds =       0.00 minutes
	total time  =          0 seconds =       0.00 minutes
Reading options from the SCF block
Calling plugin scf.so.
    Molecular point group: c1
    Full point group: D_inf_h

    Geometry (in Angstrom), charge = 0, multiplicity = 1:

       Center              X                  Y                   Z       
    ------------   -----------------  -----------------  -----------------
           H          0.000000000000     0.000000000000    -0.350000000000
           H          0.000000000000     0.000000000000     0.350000000000


    Nuclear repulsion energy:       0.75596744

  ## Overlap (Symmetry 0) ##
  Irrep: 1 Size: 10 x 10

                 1                   2                   3                   4                   5

    1     1.00000000000000     0.68486025149275     0.00000000000000     0.00000000000000     0.00000000000000
    2     0.68486025149275     1.00000000000000     0.00000000000000     0.00000000000000     0.00000000000000
    3     0.00000000000000     0.00000000000000     1.00000000000000     0.00000000000000     0.00000000000000
    4     0.00000000000000     0.00000000000000     0.00000000000000     1.00000000000000     0.00000000000000
    5     0.00000000000000     0.00000000000000     0.00000000000000     0.00000000000000     1.00000000000000
    6     0.60313244965404     0.57702625863800     0.54526552033563     0.00000000000000     0.00000000000000
    7     0.57702625863800     0.89876010323076     0.15865749562586     0.00000000000000     0.00000000000000
    8    -0.54526552033563    -0.15865749562586    -0.14405346620309     0.00000000000000     0.00000000000000
    9     0.00000000000000     0.00000000000000     0.00000000000000     0.52937393940666     0.00000000000000
   10     0.00000000000000     0.00000000000000     0.00000000000000     0.00000000000000     0.52937393940666

                 6                   7                   8                   9                  10

    1     0.60313244965404     0.57702625863800    -0.54526552033563     0.00000000000000     0.00000000000000
    2     0.57702625863800     0.89876010323076    -0.15865749562586     0.00000000000000     0.00000000000000
    3     0.54526552033563     0.15865749562586    -0.14405346620309     0.00000000000000     0.00000000000000
    4     0.00000000000000     0.00000000000000     0.00000000000000     0.52937393940666     0.00000000000000
    5     0.00000000000000     0.00000000000000     0.00000000000000     0.00000000000000     0.52937393940666
    6     1.00000000000000     0.68486025149275    -0.00000000000000     0.00000000000000     0.00000000000000
    7     0.68486025149275     1.00000000000000    -0.00000000000000     0.00000000000000     0.00000000000000
    8    -0.00000000000000    -0.00000000000000     1.00000000000000     0.00000000000000     0.00000000000000
    9     0.00000000000000     0.00000000000000     0.00000000000000     1.00000000000000     0.00000000000000
   10     0.00000000000000     0.00000000000000     0.00000000000000     0.00000000000000     1.00000000000000



  ## Kinetic (Symmetry 0) ##
  Irrep: 1 Size: 10 x 10

                 1                   2                   3                   4                   5

    1     0.96945722711242     0.20123413106538    -0.00000000000000     0.00000000000000     0.00000000000000
    2     0.20123413106538     0.18300000000000     0.00000000000000     0.00000000000000     0.00000000000000
    3    -0.00000000000000     0.00000000000000     1.81750000000000     0.00000000000000     0.00000000000000
    4     0.00000000000000     0.00000000000000     0.00000000000000     1.81750000000000     0.00000000000000
    5     0.00000000000000     0.00000000000000     0.00000000000000     0.00000000000000     1.81750000000000
    6     0.30570443395901     0.15001432705420     0.68212871830861     0.00000000000000     0.00000000000000
    7     0.15001432705420     0.15276928872368     0.07681399131184     0.00000000000000     0.00000000000000
    8    -0.68212871830861    -0.07681399131184    -0.68478630308294     0.00000000000000     0.00000000000000
    9     0.00000000000000     0.00000000000000     0.00000000000000     0.71734627293246     0.00000000000000
   10     0.00000000000000     0.00000000000000     0.00000000000000     0.00000000000000     0.71734627293246

                 6                   7                   8                   9                  10

    1     0.30570443395901     0.15001432705420    -0.68212871830861     0.00000000000000     0.00000000000000
    2     0.15001432705420     0.15276928872368    -0.07681399131184     0.00000000000000     0.00000000000000
    3     0.68212871830861     0.07681399131184    -0.68478630308294     0.00000000000000     0.00000000000000
    4     0.00000000000000     0.00000000000000     0.00000000000000     0.71734627293246     0.00000000000000
    5     0.00000000000000     0.00000000000000     0.00000000000000     0.00000000000000     0.71734627293246
    6     0.96945722711242     0.20123413106538     0.00000000000000     0.00000000000000     0.00000000000000
    7     0.20123413106538     0.18300000000000    -0.00000000000000     0.00000000000000     0.00000000000000
    8     0.00000000000000    -0.00000000000000     1.81750000000000     0.00000000000000     0.00000000000000
    9     0.00000000000000     0.00000000000000     0.00000000000000     1.81750000000000     0.00000000000000
   10     0.00000000000000     0.00000000000000     0.00000000000000     0.00000000000000     1.81750000000000



  ## Potential (Symmetry 0) ##
  Irrep: 1 Size: 10 x 10

                 1                   2                   3                   4                   5

    1    -2.09418705323061    -1.09410397855922    -0.27750696663832     0.00000000000000     0.00000000000000
    2    -1.09410397855922    -1.04463873511813    -0.20367793411758     0.00000000000000     0.00000000000000
    3    -0.27750696663832    -0.20367793411758    -1.78596181998244     0.00000000000000     0.00000000000000
    4     0.00000000000000     0.00000000000000     0.00000000000000    -1.52085342860117     0.00000000000000
    5     0.00000000000000     0.00000000000000     0.00000000000000     0.00000000000000    -1.52085342860117
    6    -1.25884215889766    -0.95061741464479    -1.26119383583584     0.00000000000000     0.00000000000000
    7    -0.95061741464479    -0.96736437204214    -0.40746709731789     0.00000000000000     0.00000000000000
    8     1.26119383583584     0.40746709731789     0.42021301528564     0.00000000000000     0.00000000000000
    9     0.00000000000000     0.00000000000000     0.00000000000000    -0.85307188330822     0.00000000000000
   10     0.00000000000000     0.00000000000000     0.00000000000000     0.00000000000000    -0.85307188330822

                 6                   7                   8                   9                  10

    1    -1.25884215889766    -0.95061741464479     1.26119383583584     0.00000000000000     0.00000000000000
    2    -0.95061741464479    -0.96736437204214     0.40746709731789     0.00000000000000     0.00000000000000
    3    -1.26119383583584    -0.40746709731789     0.42021301528564     0.00000000000000     0.00000000000000
    4     0.00000000000000     0.00000000000000     0.00000000000000    -0.85307188330822     0.00000000000000
    5     0.00000000000000     0.00000000000000     0.00000000000000     0.00000000000000    -0.85307188330822
    6    -2.09418705323061    -1.09410397855922     0.27750696663832     0.00000000000000     0.00000000000000
    7    -1.09410397855922    -1.04463873511813     0.20367793411758     0.00000000000000     0.00000000000000
    8     0.27750696663832     0.20367793411758    -1.78596181998244     0.00000000000000     0.00000000000000
    9     0.00000000000000     0.00000000000000     0.00000000000000    -1.52085342860117     0.00000000000000
   10     0.00000000000000     0.00000000000000     0.00000000000000     0.00000000000000    -1.52085342860117



  ## One Electron Ints (Symmetry 0) ##
  Irrep: 1 Size: 10 x 10

                 1                   2                   3                   4                   5

    1    -1.12472982611819    -0.89286984749384    -0.27750696663832     0.00000000000000     0.00000000000000
    2    -0.89286984749384    -0.86163873511813    -0.20367793411758     0.00000000000000     0.00000000000000
    3    -0.27750696663832    -0.20367793411758     0.03153818001756     0.00000000000000     0.00000000000000
    4     0.00000000000000     0.00000000000000     0.00000000000000     0.29664657139884     0.00000000000000
    5     0.00000000000000     0.00000000000000     0.00000000000000     0.00000000000000     0.29664657139884
    6    -0.95313772493865    -0.80060308759059    -0.57906511752723     0.00000000000000     0.00000000000000
    7    -0.80060308759059    -0.81459508331846    -0.33065310600606     0.00000000000000     0.00000000000000
    8     0.57906511752723     0.33065310600606    -0.26457328779729     0.00000000000000     0.00000000000000
    9     0.00000000000000     0.00000000000000     0.00000000000000    -0.13572561037577     0.00000000000000
   10     0.00000000000000     0.00000000000000     0.00000000000000     0.00000000000000    -0.13572561037577

                 6                   7                   8                   9                  10

    1    -0.95313772493865    -0.80060308759059     0.57906511752723     0.00000000000000     0.00000000000000
    2    -0.80060308759059    -0.81459508331846     0.33065310600606     0.00000000000000     0.00000000000000
    3    -0.57906511752723    -0.33065310600606    -0.26457328779729     0.00000000000000     0.00000000000000
    4     0.00000000000000     0.00000000000000     0.00000000000000    -0.13572561037577     0.00000000000000
    5     0.00000000000000     0.00000000000000     0.00000000000000     0.00000000000000    -0.13572561037577
    6    -1.12472982611819    -0.89286984749384     0.27750696663832     0.00000000000000     0.00000000000000
    7    -0.89286984749384    -0.86163873511813     0.20367793411758     0.00000000000000     0.00000000000000
    8     0.27750696663832     0.20367793411758     0.03153818001756     0.00000000000000     0.00000000000000
    9     0.00000000000000     0.00000000000000     0.00000000000000     0.29664657139884     0.00000000000000
   10     0.00000000000000     0.00000000000000     0.00000000000000     0.00000000000000     0.29664657139884




	There are 0 unique integrals

  ## Fock (Symmetry 0) ##
  Irrep: 1 Size: 10 x 10

                 1                   2                   3                   4                   5

    1     0.16851250828220    -0.27394400428280     0.45187251460604    -0.00000000000000     0.00000000000000
    2    -0.27394400428279    -0.36527106434352     0.14978238165000    -0.00000000000000     0.00000000000000
    3     0.45187251460604     0.14978238165000     0.76956439416023    -0.00000000000000     0.00000000000000
    4    -0.00000000000000    -0.00000000000000    -0.00000000000000     0.51196859733448     0.00000000000000
    5     0.00000000000000     0.00000000000000     0.00000000000000     0.00000000000000     0.51196859733448
    6    -1.07318262068190    -0.16030056861712    -1.02843463911632     0.00000000000000     0.00000000000000
    7    -0.16030056861712    -0.15236202127737    -0.11878933768946     0.00000000000000     0.00000000000000
    8     1.02843463911632     0.11878933768945     0.16641405488348    -0.00000000000000     0.00000000000000
    9     0.00000000000000     0.00000000000000     0.00000000000000    -0.40674844359922     0.00000000000000
   10     0.00000000000000     0.00000000000000     0.00000000000000     0.00000000000000    -0.40674844359922

                 6                   7                   8                   9                  10

    1    -1.07318262068190    -0.16030056861712     1.02843463911632     0.00000000000000     0.00000000000000
    2    -0.16030056861712    -0.15236202127737     0.11878933768946     0.00000000000000     0.00000000000000
    3    -1.02843463911632    -0.11878933768945     0.16641405488348     0.00000000000000     0.00000000000000
    4     0.00000000000000     0.00000000000000    -0.00000000000000    -0.40674844359922     0.00000000000000
    5     0.00000000000000     0.00000000000000     0.00000000000000     0.00000000000000    -0.40674844359922
    6     0.16851250828221    -0.27394400428280    -0.45187251460604    -0.00000000000000     0.00000000000000
    7    -0.27394400428279    -0.36527106434352    -0.14978238165000    -0.00000000000000     0.00000000000000
    8    -0.45187251460604    -0.14978238165000     0.76956439416023     0.00000000000000     0.00000000000000
    9    -0.00000000000000    -0.00000000000000     0.00000000000000     0.51196859733448     0.00000000000000
   10     0.00000000000000     0.00000000000000     0.00000000000000     0.00000000000000     0.51196859733448



  ## C (Symmetry 0) ##
  Irrep: 1 Size: 10 x 10

                 1                   2                   3                   4                   5

    1    -1.94817375401152    -0.47970584774598    -0.49669166173631    -0.27015991123692     0.16346668262377
    2     1.40037216038825     1.11536259361162    -1.89348457189777    -0.01353469435340    -0.03584582510230
    3    -0.87567335942456     0.83247862970861    -0.64917656285270    -0.21666099964448     0.32951105928439
    4     0.33169482646823    -0.64942615275430    -0.33201948242721     0.22947801854924    -0.00000000000000
    5    -0.16980293682586    -0.00791392023943    -0.15415736605508     0.77212609973253     0.21408878674536
    6     1.25371568889052    -0.31634789025735     0.23486893508695     0.49195493463623    -1.15803896261374
    7    -1.01005942766207    -0.39655259273083     2.17757565421046    -0.07731133649182     0.43674536999262
    8    -0.76988779895629     0.05324541150615    -0.52400651183195    -0.16465140938314    -0.58358159363256
    9    -0.09499658031387     0.18599404861071     0.09508956097990    -0.80125696408722     0.00000000000000
   10     0.59289245442474     0.02763264100486     0.53826359447354    -0.22113501083715    -0.06131450056338

                 6                   7                   8                   9                  10

    1    -1.64135526507169    -0.14133619544756     0.85202019605116    -0.27015991123692     1.78523433753349
    2    -0.36403060665610    -0.83047956493007    -0.14988201699739    -0.01353469435340     0.13347345820757
    3    -1.04312460920607     0.64780781224487     0.45525015587621    -0.21666099964448     1.23329486962796
    4    -0.33169482646823     0.64942615275430    -0.33201948242721    -0.22947801854924     0.00000000000000
    5     0.16980293682586     0.00791392023943    -0.15415736605508     0.77212609973253     0.21408878674536
    6     1.30742960276410    -0.25711039637686    -0.17266249389442     0.49195493463622    -2.39050041396416
    7     0.01810635305844     0.73734288706787    -0.98685001978574    -0.07731133649182     0.12091205446223
    8    -0.85965896687356    -0.04575722350307     0.42004192472380    -0.16465140938314     1.77123511323218
    9     0.09499658031387    -0.18599404861071     0.09508956097990     0.80125696408722    -0.00000000000000
   10    -0.59289245442475    -0.02763264100486     0.53826359447354    -0.22113501083715    -0.06131450056338




 In Bisection function HOMO = -1.307  LUMO =  2.580

 0.63646 = (-1.30740 + 2.58031)/2.0
 sum -  nocc_ = 5.00000000
 On Iteration in Bisection 0
 a: 5.00000  b:-0.50000

 -0.33547 = (-1.30740 + 0.63646)/2.0
 sum -  nocc_ = 1.00018885
 On Iteration in Bisection 1
 a: 1.00019  b:-0.50000

 -0.82144 = (-1.30740 + -0.33547)/2.0
 sum -  nocc_ = 0.00000000
 ef = -0.82144 sum = 1.00000 

 Iter: 0  T:      100.000  val:-0.821436  sumni 0.00000
 ne = 1.0000

Nuc Replusion =       0.755967440843
 1st iteration =       0.881371444067
 In Bisection function HOMO = -0.197  LUMO =  3.702

 1.75236 = (-0.19731 + 3.70203)/2.0
 sum -  nocc_ = 5.00000000
 On Iteration in Bisection 0
 a: 5.00000  b:-0.50000

 0.77753 = (-0.19731 + 1.75236)/2.0
 sum -  nocc_ = 2.00000000
 On Iteration in Bisection 1
 a: 2.00000  b:-0.50000

 0.29011 = (-0.19731 + 0.77753)/2.0
 sum -  nocc_ = 1.00000000
 On Iteration in Bisection 2
 a: 1.00000  b:-0.50000

 0.04640 = (-0.19731 + 0.29011)/2.0
 sum -  nocc_ = 0.00000000
 ef = 0.04640 sum = 1.00000 

 Iter: 0  T:      100.000  val:0.046401  sumni 0.00000
 ne = 1.0000

 iter:1  failiter:1  energy:     -1.438433189711  total:     -0.682465748869  error:     -0.311508497164
 In Bisection function HOMO = -0.613  LUMO =  3.852

 1.61975 = (-0.61291 + 3.85241)/2.0
 sum -  nocc_ = 5.00000000
 On Iteration in Bisection 0
 a: 5.00000  b:-0.50000

 0.50342 = (-0.61291 + 1.61975)/2.0
 sum -  nocc_ = 2.00000000
 On Iteration in Bisection 1
 a: 2.00000  b:-0.50000

 -0.05474 = (-0.61291 + 0.50342)/2.0
 sum -  nocc_ = 0.00000000
 ef = -0.05474 sum = 1.00000 

 Iter: 1  T:      100.000  val:-0.054742  sumni 0.00000
 ne = 1.0000

 iter:2  failiter:2  energy:     -1.888338471986  total:     -1.132371031143  error:     -0.449905282274
 In Bisection function HOMO = -0.606  LUMO =  3.880

 1.63719 = (-0.60579 + 3.88018)/2.0
 sum -  nocc_ = 5.00000000
 On Iteration in Bisection 0
 a: 5.00000  b:-0.50000

 0.51570 = (-0.60579 + 1.63719)/2.0
 sum -  nocc_ = 2.00000000
 On Iteration in Bisection 1
 a: 2.00000  b:-0.50000

 -0.04504 = (-0.60579 + 0.51570)/2.0
 sum -  nocc_ = 0.00000000
 ef = -0.04504 sum = 1.00000 

 Iter: 2  T:      100.000  val:-0.045044  sumni 0.00000
 ne = 1.0000

 iter:3  failiter:3  energy:     -1.883609030330  total:     -1.127641589487  error:      0.004729441655
 In Bisection function HOMO = -0.605  LUMO =  3.883

 1.63896 = (-0.60494 + 3.88286)/2.0
 sum -  nocc_ = 5.00000000
 On Iteration in Bisection 0
 a: 5.00000  b:-0.50000

 0.51701 = (-0.60494 + 1.63896)/2.0
 sum -  nocc_ = 2.00000000
 On Iteration in Bisection 1
 a: 2.00000  b:-0.50000

 -0.04397 = (-0.60494 + 0.51701)/2.0
 sum -  nocc_ = 0.00000000
 ef = -0.04397 sum = 1.00000 

 Iter: 3  T:      100.000  val:-0.043966  sumni 0.00000
 ne = 1.0000

 iter:4  failiter:4  energy:     -1.882983355670  total:     -1.127015914827  error:      0.000625674661
 In Bisection function HOMO = -0.605  LUMO =  3.883

 1.63917 = (-0.60484 + 3.88318)/2.0
 sum -  nocc_ = 5.00000000
 On Iteration in Bisection 0
 a: 5.00000  b:-0.50000

 0.51717 = (-0.60484 + 1.63917)/2.0
 sum -  nocc_ = 2.00000000
 On Iteration in Bisection 1
 a: 2.00000  b:-0.50000

 -0.04384 = (-0.60484 + 0.51717)/2.0
 sum -  nocc_ = 0.00000000
 ef = -0.04384 sum = 1.00000 

 Iter: 4  T:      100.000  val:-0.043837  sumni 0.00000
 ne = 1.0000

 iter:5  failiter:5  energy:     -1.882907374865  total:     -1.126939934022  error:      0.000075980805
 In Bisection function HOMO = -0.605  LUMO =  3.883

 1.63920 = (-0.60482 + 3.88323)/2.0
 sum -  nocc_ = 5.00000000
 On Iteration in Bisection 0
 a: 5.00000  b:-0.50000

 0.51719 = (-0.60482 + 1.63920)/2.0
 sum -  nocc_ = 2.00000000
 On Iteration in Bisection 1
 a: 2.00000  b:-0.50000

 -0.04382 = (-0.60482 + 0.51719)/2.0
 sum -  nocc_ = 0.00000000
 ef = -0.04382 sum = 1.00000 

 Iter: 5  T:      100.000  val:-0.043816  sumni 0.00000
 ne = 1.0000

 iter:6  failiter:6  energy:     -1.882895246758  total:     -1.126927805915  error:      0.000012128107
 In Bisection function HOMO = -0.605  LUMO =  3.883

 1.63921 = (-0.60482 + 3.88324)/2.0
 sum -  nocc_ = 5.00000000
 On Iteration in Bisection 0
 a: 5.00000  b:-0.50000

 0.51719 = (-0.60482 + 1.63921)/2.0
 sum -  nocc_ = 2.00000000
 On Iteration in Bisection 1
 a: 2.00000  b:-0.50000

 -0.04381 = (-0.60482 + 0.51719)/2.0
 sum -  nocc_ = 0.00000000
 ef = -0.04381 sum = 1.00000 

 Iter: 6  T:      100.000  val:-0.043813  sumni 0.00000
 ne = 1.0000

 iter:7  failiter:7  energy:     -1.882892810983  total:     -1.126925370140  error:      0.000002435775
 In Bisection function HOMO = -0.605  LUMO =  3.883

 1.63921 = (-0.60482 + 3.88324)/2.0
 sum -  nocc_ = 5.00000000
 On Iteration in Bisection 0
 a: 5.00000  b:-0.50000

 0.51720 = (-0.60482 + 1.63921)/2.0
 sum -  nocc_ = 2.00000000
 On Iteration in Bisection 1
 a: 2.00000  b:-0.50000

 -0.04381 = (-0.60482 + 0.51720)/2.0
 sum -  nocc_ = 0.00000000
 ef = -0.04381 sum = 1.00000 

 Iter: 7  T:      100.000  val:-0.043812  sumni 0.00000
 ne = 1.0000

 iter:8  failiter:8  energy:     -1.882892280670  total:     -1.126924839828  error:      0.000000530313
 In Bisection function HOMO = -0.605  LUMO =  3.883

 1.63921 = (-0.60482 + 3.88324)/2.0
 sum -  nocc_ = 5.00000000
 On Iteration in Bisection 0
 a: 5.00000  b:-0.50000

 0.51720 = (-0.60482 + 1.63921)/2.0
 sum -  nocc_ = 2.00000000
 On Iteration in Bisection 1
 a: 2.00000  b:-0.50000

 -0.04381 = (-0.60482 + 0.51720)/2.0
 sum -  nocc_ = 0.00000000
 ef = -0.04381 sum = 1.00000 

 Iter: 8  T:      100.000  val:-0.043812  sumni 0.00000
 ne = 1.0000

 iter:9  failiter:9  energy:     -1.882892164836  total:     -1.126924723993  error:      0.000000115835
 In Bisection function HOMO = -0.605  LUMO =  3.883

 1.63921 = (-0.60482 + 3.88324)/2.0
 sum -  nocc_ = 5.00000000
 On Iteration in Bisection 0
 a: 5.00000  b:-0.50000

 0.51720 = (-0.60482 + 1.63921)/2.0
 sum -  nocc_ = 2.00000000
 On Iteration in Bisection 1
 a: 2.00000  b:-0.50000

 -0.04381 = (-0.60482 + 0.51720)/2.0
 sum -  nocc_ = 0.00000000
 ef = -0.04381 sum = 1.00000 

 Iter: 9  T:      100.000  val:-0.043812  sumni 0.00000
 ne = 1.0000

 iter:10  failiter:10  energy:     -1.882892139983  total:     -1.126924699141  error:      0.000000024852
 In Bisection function HOMO = -0.605  LUMO =  3.883

 1.63921 = (-0.60482 + 3.88324)/2.0
 sum -  nocc_ = 5.00000000
 On Iteration in Bisection 0
 a: 5.00000  b:-0.50000

 0.51720 = (-0.60482 + 1.63921)/2.0
 sum -  nocc_ = 2.00000000
 On Iteration in Bisection 1
 a: 2.00000  b:-0.50000

 -0.04381 = (-0.60482 + 0.51720)/2.0
 sum -  nocc_ = 0.00000000
 ef = -0.04381 sum = 1.00000 

 Iter: 10  T:      100.000  val:-0.043812  sumni 0.00000
 ne = 1.0000

 iter:11  failiter:11  energy:     -1.882892134753  total:     -1.126924693910  error:      0.000000005231
 In Bisection function HOMO = -0.605  LUMO =  3.883

 1.63921 = (-0.60482 + 3.88324)/2.0
 sum -  nocc_ = 5.00000000
 On Iteration in Bisection 0
 a: 5.00000  b:-0.50000

 0.51720 = (-0.60482 + 1.63921)/2.0
 sum -  nocc_ = 2.00000000
 On Iteration in Bisection 1
 a: 2.00000  b:-0.50000

 -0.04381 = (-0.60482 + 0.51720)/2.0
 sum -  nocc_ = 0.00000000
 ef = -0.04381 sum = 1.00000 

 Iter: 11  T:      100.000  val:-0.043812  sumni 0.00000
 ne = 1.0000

 iter:12  failiter:12  energy:     -1.882892133669  total:     -1.126924692826  error:      0.000000001084
 In Bisection function HOMO = -0.605  LUMO =  3.883

 1.63921 = (-0.60482 + 3.88324)/2.0
 sum -  nocc_ = 5.00000000
 On Iteration in Bisection 0
 a: 5.00000  b:-0.50000

 0.51720 = (-0.60482 + 1.63921)/2.0
 sum -  nocc_ = 2.00000000
 On Iteration in Bisection 1
 a: 2.00000  b:-0.50000

 -0.04381 = (-0.60482 + 0.51720)/2.0
 sum -  nocc_ = 0.00000000
 ef = -0.04381 sum = 1.00000 

 Iter: 12  T:      100.000  val:-0.043812  sumni 0.00000
 ne = 1.0000

 iter:13  failiter:13  energy:     -1.882892133447  total:     -1.126924692604  error:      0.000000000222
 In Bisection function HOMO = -0.605  LUMO =  3.883

 1.63921 = (-0.60482 + 3.88324)/2.0
 sum -  nocc_ = 5.00000000
 On Iteration in Bisection 0
 a: 5.00000  b:-0.50000

 0.51720 = (-0.60482 + 1.63921)/2.0
 sum -  nocc_ = 2.00000000
 On Iteration in Bisection 1
 a: 2.00000  b:-0.50000

 -0.04381 = (-0.60482 + 0.51720)/2.0
 sum -  nocc_ = 0.00000000
 ef = -0.04381 sum = 1.00000 

 Iter: 13  T:      100.000  val:-0.043812  sumni 0.00000
 ne = 1.0000

 iter:14  failiter:14  energy:     -1.882892133402  total:     -1.126924692559  error:      0.000000000045
 In Bisection function HOMO = -0.605  LUMO =  3.883

 1.63921 = (-0.60482 + 3.88324)/2.0
 sum -  nocc_ = 5.00000000
 On Iteration in Bisection 0
 a: 5.00000  b:-0.50000

 0.51720 = (-0.60482 + 1.63921)/2.0
 sum -  nocc_ = 2.00000000
 On Iteration in Bisection 1
 a: 2.00000  b:-0.50000

 -0.04381 = (-0.60482 + 0.51720)/2.0
 sum -  nocc_ = 0.00000000
 ef = -0.04381 sum = 1.00000 

 Iter: 14  T:      100.000  val:-0.043812  sumni 0.00000
 ne = 1.0000

 iter:15  failiter:15  energy:     -1.882892133392  total:     -1.126924692550  error:      0.000000000009
 In Bisection function HOMO = -0.605  LUMO =  3.883

 1.63921 = (-0.60482 + 3.88324)/2.0
 sum -  nocc_ = 5.00000000
 On Iteration in Bisection 0
 a: 5.00000  b:-0.50000

 0.51720 = (-0.60482 + 1.63921)/2.0
 sum -  nocc_ = 2.00000000
 On Iteration in Bisection 1
 a: 2.00000  b:-0.50000

 -0.04381 = (-0.60482 + 0.51720)/2.0
 sum -  nocc_ = 0.00000000
 ef = -0.04381 sum = 1.00000 

 Iter: 15  T:      100.000  val:-0.043812  sumni 0.00000
 ne = 1.0000

 iter:16  failiter:16  energy:     -1.882892133391  total:     -1.126924692548  error:      0.000000000002
 In Bisection function HOMO = -0.605  LUMO =  3.883

 1.63921 = (-0.60482 + 3.88324)/2.0
 sum -  nocc_ = 5.00000000
 On Iteration in Bisection 0
 a: 5.00000  b:-0.50000

 0.51720 = (-0.60482 + 1.63921)/2.0
 sum -  nocc_ = 2.00000000
 On Iteration in Bisection 1
 a: 2.00000  b:-0.50000

 -0.04381 = (-0.60482 + 0.51720)/2.0
 sum -  nocc_ = 0.00000000
 ef = -0.04381 sum = 1.00000 

 Iter: 16  T:      100.000  val:-0.043812  sumni 0.00000
 ne = 1.0000

 iter:17  failiter:17  energy:     -1.882892133390  total:     -1.126924692547  error:      0.000000000000
 FTHFEnergy =    -1.126925
 FD_dis[0] = 1.00000000 with -0.604819 eig value
 FD_dis[1] = 0.00000000 with 0.204983 eig value
 FD_dis[2] = 0.00000000 with 0.469676 eig value
 FD_dis[3] = 0.00000000 with 0.967587 eig value
 FD_dis[4] = 0.00000000 with 1.297822 eig value
 FD_dis[5] = 0.00000000 with 1.297822 eig value
 FD_dis[6] = 0.00000000 with 1.994580 eig value
 FD_dis[7] = 0.00000000 with 2.070702 eig value
 FD_dis[8] = 0.00000000 with 2.070702 eig value
 FD_dis[9] = 0.00000000 with 3.883238 eig value
*** PSI4 exiting successfully. Buy a developer a beer!
