    -----------------------------------------------------------------------
          PSI4: An Open-Source Ab Initio Electronic Structure Package
                              PSI 4.0 Driver

               Git: Rev {master} 556e8139d3cfa1f96ccffe2cdf22cc56a185d2b2

    J. M. Turney, A. C. Simmonett, R. M. Parrish, E. G. Hohenstein,
    F. A. Evangelista, J. T. Fermann, B. J. Mintz, L. A. Burns, J. J. Wilke,
    M. L. Abrams, N. J. Russ, M. L. Leininger, C. L. Janssen, E. T. Seidl,
    W. D. Allen, H. F. Schaefer, R. A. King, E. F. Valeev, C. D. Sherrill,
    and T. D. Crawford, WIREs Comput. Mol. Sci. 2, 556-565 (2012)
    (doi: 10.1002/wcms.93)

                         Additional Contributions by
    A. E. DePrince, M. Saitow, U. Bozkaya, A. Yu. Sokolov
    -----------------------------------------------------------------------

    Process ID:  11936
    PSI4DATADIR: /Users/kevinhannon/Programs/psi4cmake/psi4/lib
    Memory level set to 256.000 MB

  ==> Input File <==

--------------------------------------------------------------------------

# PYTHONPATH must include directory above plugin directory.
#     Define either externally or here, then import plugin.
sys.path.insert(0, '/Users/kevinhannon/Programs/Quantum_Programs/Quantum-Programs/GS/')
import scf

molecule {
0 1
H
H 1 1.10000
symmetry c1
units angstrom
}


set {
  basis cc-pvdz
  reference rhf
  scf_type  pk
}

set scf {
  DO_FTHF true
  MAX_ITER 130
  MAX_TEMP 100
  TEMP_INCREMENT 0
  bisect  true
  bisect_iter  40
}
energy('rhf')

energy('scf')


--------------------------------------------------------------------------

*** tstart() called on Kevins-MacBook-Pro.local
*** at Fri Apr 10 18:02:05 2015

/Users/kevinhannon/Programs/Quantum_Programs/Quantum-Programs/GS/scf/scf.so loaded.

*** tstart() called on Kevins-MacBook-Pro.local
*** at Fri Apr 10 18:02:05 2015


         ---------------------------------------------------------
                                   SCF
            by Justin Turney, Rob Parrish, and Andy Simmonett
                              RHF Reference
                        1 Threads,    256 MiB Core
         ---------------------------------------------------------

  ==> Geometry <==

    Molecular point group: c1
    Full point group: D_inf_h

    Geometry (in Angstrom), charge = 0, multiplicity = 1:

       Center              X                  Y                   Z       
    ------------   -----------------  -----------------  -----------------
           H          0.000000000000     0.000000000000    -0.550000000000
           H          0.000000000000     0.000000000000     0.550000000000

  Running in c1 symmetry.

  Rotational constants: A = ************  B =     27.64751  C =     27.64751 [cm^-1]
  Rotational constants: A = ************  B = 828851.40948  C = 828851.40948 [MHz]
  Nuclear repulsion =    0.481070189627273

  Charge       = 0
  Multiplicity = 1
  Electrons    = 2
  Nalpha       = 1
  Nbeta        = 1

  ==> Algorithm <==

  SCF Algorithm Type is PK.
  DIIS enabled.
  MOM disabled.
  Fractional occupation disabled.
  Guess Type is CORE.
  Energy threshold   = 1.00e-06
  Density threshold  = 1.00e-06
  Integral threshold = 0.00e+00

  ==> Primary Basis <==

  Basis Set: CC-PVDZ
    Number of shells: 6
    Number of basis function: 10
    Number of Cartesian functions: 10
    Spherical Harmonics?: true
    Max angular momentum: 1

  ==> Pre-Iterations <==

   -------------------------------------------------------
    Irrep   Nso     Nmo     Nalpha   Nbeta   Ndocc  Nsocc
   -------------------------------------------------------
     A         10      10       0       0       0       0
   -------------------------------------------------------
    Total      10      10       1       1       1       0
   -------------------------------------------------------

  Starting with a DF guess...

 OEINTS: Overlap, kinetic, potential, dipole, and quadrupole integrals
         stored in file 35.

  ==> Integral Setup <==

  ==> DFJK: Density-Fitted J/K Matrices <==

    J tasked:                  Yes
    K tasked:                  Yes
    wK tasked:                  No
    OpenMP threads:              1
    Integrals threads:           1
    Memory (MB):               183
    Algorithm:                Core
    Integral Cache:           NONE
    Schwarz Cutoff:          1E-12
    Fitting Condition:       1E-12

   => Auxiliary Basis Set <=

  Basis Set: 
    Number of shells: 18
    Number of basis function: 46
    Number of Cartesian functions: 50
    Spherical Harmonics?: true
    Max angular momentum: 2

  Minimum eigenvalue in the overlap matrix is 1.2602117139E-01.
  Using Symmetric Orthogonalization.
  SCF Guess: Core (One-Electron) Hamiltonian.

  ==> Iterations <==

                           Total Energy        Delta E     RMS |[F,P]|

   @DF-RHF iter   1:    -1.03430474868596   -1.03430e+00   2.05904e-02 
   @DF-RHF iter   2:    -1.07971130022074   -4.54066e-02   3.60719e-03 DIIS
   @DF-RHF iter   3:    -1.08117069087567   -1.45939e-03   1.57757e-04 DIIS
   @DF-RHF iter   4:    -1.08117231722367   -1.62635e-06   7.12952e-06 DIIS
   @DF-RHF iter   5:    -1.08117232304089   -5.81722e-09   7.60186e-09 DIIS

  DF guess converged.

  ==> Integral Setup <==

 MINTS: Wrapper to libmints.
   by Justin Turney

   Calculation information:
      Number of atoms:                   2
      Number of AO shells:               6
      Number of SO shells:               6
      Number of primitives:             10
      Number of atomic orbitals:        10
      Number of basis functions:        10

      Number of irreps:                  1
      Integral cutoff                 0.00e+00
      Number of functions per irrep: [  10 ]

 OEINTS: Overlap, kinetic, potential, dipole, and quadrupole integrals
         stored in file 35.

      Computing two-electron integrals...done
      Computed 512 non-zero two-electron integrals.
        Stored in file 33.

	Batch   1 pq = [       0,      55] index = [             0,1540]
  ==> DiskJK: Disk-Based J/K Matrices <==

    J tasked:                  Yes
    K tasked:                  Yes
    wK tasked:                  No
    Memory (MB):               183
    Schwarz Cutoff:          1E-12

   @RHF iter   6:    -1.08117078340451    1.53964e-06   5.51558e-07 DIIS
   @RHF iter   7:    -1.08117078342162   -1.71121e-11   8.98479e-08 DIIS

  ==> Post-Iterations <==

    Orbital Energies (a.u.)
    -----------------------

    Doubly Occupied:                                                      

       1A     -0.504070  

    Virtual:                                                              

       2A      0.121816     3A      0.561524     4A      0.758239  
       5A      1.298118     6A      1.298118     7A      1.571229  
       8A      1.810600     9A      1.810600    10A      2.584006  

    Final Occupation by Irrep:
              A 
    DOCC [     1 ]

  Energy converged.

  @RHF Final Energy:    -1.08117078342162

   => Energetics <=

    Nuclear Repulsion Energy =              0.4810701896272727
    One-Electron Energy =                  -2.1163428986001818
    Two-Electron Energy =                   0.5541019255512905
    DFT Exchange-Correlation Energy =       0.0000000000000000
    Empirical Dispersion Energy =           0.0000000000000000
    PCM Polarization Energy =               0.0000000000000000
    EFP Energy =                            0.0000000000000000
    Total Energy =                         -1.0811707834216187

    Alert: EFP and PCM quantities not currently incorporated into SCF psivars.

Properties will be evaluated at   0.000000,   0.000000,   0.000000 Bohr
  ==> Properties <==


Properties computed using the SCF density matrix

  Nuclear Dipole Moment: (a.u.)
     X:     0.0000      Y:     0.0000      Z:     0.0000

  Electronic Dipole Moment: (a.u.)
     X:     0.0000      Y:    -0.0000      Z:    -0.0000

  Dipole Moment: (a.u.)
     X:     0.0000      Y:    -0.0000      Z:    -0.0000     Total:     0.0000

  Dipole Moment: (Debye)
     X:     0.0000      Y:    -0.0000      Z:    -0.0000     Total:     0.0000


  Saving occupied orbitals to File 180.

*** tstop() called on Kevins-MacBook-Pro.local at Fri Apr 10 18:02:06 2015
Module time:
	user time   =       0.21 seconds =       0.00 minutes
	system time =       0.01 seconds =       0.00 minutes
	total time  =          1 seconds =       0.02 minutes
Total time:
	user time   =       0.23 seconds =       0.00 minutes
	system time =       0.01 seconds =       0.00 minutes
	total time  =          1 seconds =       0.02 minutes

*** tstart() called on Kevins-MacBook-Pro.local
*** at Fri Apr 10 18:02:06 2015


         ---------------------------------------------------------
                                   SCF
            by Justin Turney, Rob Parrish, and Andy Simmonett
                              RHF Reference
                        1 Threads,    256 MiB Core
         ---------------------------------------------------------

  ==> Geometry <==

    Molecular point group: c1
    Full point group: D_inf_h

    Geometry (in Angstrom), charge = 0, multiplicity = 1:

       Center              X                  Y                   Z       
    ------------   -----------------  -----------------  -----------------
           H          0.000000000000     0.000000000000    -0.550000000000
           H          0.000000000000     0.000000000000     0.550000000000

  Running in c1 symmetry.

  Rotational constants: A = ************  B =     27.64751  C =     27.64751 [cm^-1]
  Rotational constants: A = ************  B = 828851.40948  C = 828851.40948 [MHz]
  Nuclear repulsion =    0.481070189627273

  Charge       = 0
  Multiplicity = 1
  Electrons    = 2
  Nalpha       = 1
  Nbeta        = 1

  ==> Algorithm <==

  SCF Algorithm Type is PK.
  DIIS enabled.
  MOM disabled.
  Fractional occupation disabled.
  Guess Type is CORE.
  Energy threshold   = 1.00e-08
  Density threshold  = 1.00e-08
  Integral threshold = 0.00e+00

  ==> Primary Basis <==

  Basis Set: CC-PVDZ
    Number of shells: 6
    Number of basis function: 10
    Number of Cartesian functions: 10
    Spherical Harmonics?: true
    Max angular momentum: 1

  ==> Pre-Iterations <==

   -------------------------------------------------------
    Irrep   Nso     Nmo     Nalpha   Nbeta   Ndocc  Nsocc
   -------------------------------------------------------
     A         10      10       0       0       0       0
   -------------------------------------------------------
    Total      10      10       1       1       1       0
   -------------------------------------------------------

  Starting with a DF guess...

 OEINTS: Overlap, kinetic, potential, dipole, and quadrupole integrals
         stored in file 35.

  ==> Integral Setup <==

  ==> DFJK: Density-Fitted J/K Matrices <==

    J tasked:                  Yes
    K tasked:                  Yes
    wK tasked:                  No
    OpenMP threads:              1
    Integrals threads:           1
    Memory (MB):               183
    Algorithm:                Core
    Integral Cache:           NONE
    Schwarz Cutoff:          1E-12
    Fitting Condition:       1E-12

   => Auxiliary Basis Set <=

  Basis Set: 
    Number of shells: 18
    Number of basis function: 46
    Number of Cartesian functions: 50
    Spherical Harmonics?: true
    Max angular momentum: 2

  Minimum eigenvalue in the overlap matrix is 1.2602117139E-01.
  Using Symmetric Orthogonalization.
  SCF Guess: Core (One-Electron) Hamiltonian.

  ==> Iterations <==

                           Total Energy        Delta E     RMS |[F,P]|

   @DF-RHF iter   1:    -1.03430474868596   -1.03430e+00   2.05904e-02 
   @DF-RHF iter   2:    -1.07971130022074   -4.54066e-02   3.60719e-03 DIIS
   @DF-RHF iter   3:    -1.08117069087567   -1.45939e-03   1.57757e-04 DIIS
   @DF-RHF iter   4:    -1.08117231722367   -1.62635e-06   7.12952e-06 DIIS
   @DF-RHF iter   5:    -1.08117232304089   -5.81722e-09   7.60186e-09 DIIS

  DF guess converged.

  ==> Integral Setup <==

 MINTS: Wrapper to libmints.
   by Justin Turney

   Calculation information:
      Number of atoms:                   2
      Number of AO shells:               6
      Number of SO shells:               6
      Number of primitives:             10
      Number of atomic orbitals:        10
      Number of basis functions:        10

      Number of irreps:                  1
      Integral cutoff                 0.00e+00
      Number of functions per irrep: [  10 ]

 OEINTS: Overlap, kinetic, potential, dipole, and quadrupole integrals
         stored in file 35.

      Computing two-electron integrals...done
      Computed 512 non-zero two-electron integrals.
        Stored in file 33.

	Batch   1 pq = [       0,      55] index = [             0,1540]
  ==> DiskJK: Disk-Based J/K Matrices <==

    J tasked:                  Yes
    K tasked:                  Yes
    wK tasked:                  No
    Memory (MB):               183
    Schwarz Cutoff:          1E-12

   @RHF iter   6:    -1.08117078340450    1.53964e-06   5.51558e-07 DIIS
   @RHF iter   7:    -1.08117078342162   -1.71139e-11   8.98479e-08 DIIS
   @RHF iter   8:    -1.08117078342210   -4.81393e-13   2.09201e-09 DIIS

  ==> Post-Iterations <==

    Orbital Energies (a.u.)
    -----------------------

    Doubly Occupied:                                                      

       1A     -0.504070  

    Virtual:                                                              

       2A      0.121816     3A      0.561524     4A      0.758240  
       5A      1.298118     6A      1.298118     7A      1.571229  
       8A      1.810600     9A      1.810600    10A      2.584006  

    Final Occupation by Irrep:
              A 
    DOCC [     1 ]

  Energy converged.

  @RHF Final Energy:    -1.08117078342210

   => Energetics <=

    Nuclear Repulsion Energy =              0.4810701896272727
    One-Electron Energy =                  -2.1163429088832197
    Two-Electron Energy =                   0.5541019358338470
    DFT Exchange-Correlation Energy =       0.0000000000000000
    Empirical Dispersion Energy =           0.0000000000000000
    PCM Polarization Energy =               0.0000000000000000
    EFP Energy =                            0.0000000000000000
    Total Energy =                         -1.0811707834221000

    Alert: EFP and PCM quantities not currently incorporated into SCF psivars.

Properties will be evaluated at   0.000000,   0.000000,   0.000000 Bohr
  ==> Properties <==


Properties computed using the SCF density matrix

  Nuclear Dipole Moment: (a.u.)
     X:     0.0000      Y:     0.0000      Z:     0.0000

  Electronic Dipole Moment: (a.u.)
     X:     0.0000      Y:    -0.0000      Z:    -0.0000

  Dipole Moment: (a.u.)
     X:     0.0000      Y:    -0.0000      Z:    -0.0000     Total:     0.0000

  Dipole Moment: (Debye)
     X:     0.0000      Y:    -0.0000      Z:    -0.0000     Total:     0.0000


  Saving occupied orbitals to File 180.

*** tstop() called on Kevins-MacBook-Pro.local at Fri Apr 10 18:02:06 2015
Module time:
	user time   =       0.19 seconds =       0.00 minutes
	system time =       0.01 seconds =       0.00 minutes
	total time  =          0 seconds =       0.00 minutes
Total time:
	user time   =       0.43 seconds =       0.01 minutes
	system time =       0.02 seconds =       0.00 minutes
	total time  =          1 seconds =       0.02 minutes
Reading options from the SCF block
Calling plugin scf.so.
    Molecular point group: c1
    Full point group: D_inf_h

    Geometry (in Angstrom), charge = 0, multiplicity = 1:

       Center              X                  Y                   Z       
    ------------   -----------------  -----------------  -----------------
           H          0.000000000000     0.000000000000    -0.550000000000
           H          0.000000000000     0.000000000000     0.550000000000


    Nuclear repulsion energy:       0.48107019

  ## Overlap (Symmetry 0) ##
  Irrep: 1 Size: 10 x 10

                 1                   2                   3                   4                   5

    1     1.00000000000000     0.68486025149275     0.00000000000000     0.00000000000000     0.00000000000000
    2     0.68486025149275     1.00000000000000     0.00000000000000     0.00000000000000     0.00000000000000
    3     0.00000000000000     0.00000000000000     1.00000000000000     0.00000000000000     0.00000000000000
    4     0.00000000000000     0.00000000000000     0.00000000000000     1.00000000000000     0.00000000000000
    5     0.00000000000000     0.00000000000000     0.00000000000000     0.00000000000000     1.00000000000000
    6     0.31055123477960     0.44869660594756     0.37080394601826     0.00000000000000     0.00000000000000
    7     0.44869660594756     0.76829592801344     0.19059032352063     0.00000000000000     0.00000000000000
    8    -0.37080394601826    -0.19059032352063    -0.44519681515262     0.00000000000000     0.00000000000000
    9     0.00000000000000     0.00000000000000     0.00000000000000     0.20790390286076     0.00000000000000
   10     0.00000000000000     0.00000000000000     0.00000000000000     0.00000000000000     0.20790390286076

                 6                   7                   8                   9                  10

    1     0.31055123477960     0.44869660594756    -0.37080394601826     0.00000000000000     0.00000000000000
    2     0.44869660594756     0.76829592801344    -0.19059032352063     0.00000000000000     0.00000000000000
    3     0.37080394601826     0.19059032352063    -0.44519681515262     0.00000000000000     0.00000000000000
    4     0.00000000000000     0.00000000000000     0.00000000000000     0.20790390286076     0.00000000000000
    5     0.00000000000000     0.00000000000000     0.00000000000000     0.00000000000000     0.20790390286076
    6     1.00000000000000     0.68486025149275    -0.00000000000000     0.00000000000000     0.00000000000000
    7     0.68486025149275     1.00000000000000     0.00000000000000     0.00000000000000     0.00000000000000
    8    -0.00000000000000     0.00000000000000     1.00000000000000     0.00000000000000     0.00000000000000
    9     0.00000000000000     0.00000000000000     0.00000000000000     1.00000000000000     0.00000000000000
   10     0.00000000000000     0.00000000000000     0.00000000000000     0.00000000000000     1.00000000000000



  ## Kinetic (Symmetry 0) ##
  Irrep: 1 Size: 10 x 10

                 1                   2                   3                   4                   5

    1     0.96945722711242     0.20123413106538    -0.00000000000000     0.00000000000000     0.00000000000000
    2     0.20123413106538     0.18300000000000     0.00000000000000     0.00000000000000     0.00000000000000
    3    -0.00000000000000     0.00000000000000     1.81750000000000     0.00000000000000     0.00000000000000
    4     0.00000000000000     0.00000000000000     0.00000000000000     1.81750000000000     0.00000000000000
    5     0.00000000000000     0.00000000000000     0.00000000000000     0.00000000000000     1.81750000000000
    6     0.05320497030726     0.09441173205909     0.23948381963655     0.00000000000000     0.00000000000000
    7     0.09441173205909     0.11589221921085     0.08157794796036     0.00000000000000     0.00000000000000
    8    -0.23948381963655    -0.08157794796036    -0.77558637602465     0.00000000000000     0.00000000000000
    9     0.00000000000000     0.00000000000000     0.00000000000000     0.14046323245156     0.00000000000000
   10     0.00000000000000     0.00000000000000     0.00000000000000     0.00000000000000     0.14046323245156

                 6                   7                   8                   9                  10

    1     0.05320497030726     0.09441173205909    -0.23948381963655     0.00000000000000     0.00000000000000
    2     0.09441173205909     0.11589221921085    -0.08157794796036     0.00000000000000     0.00000000000000
    3     0.23948381963655     0.08157794796036    -0.77558637602465     0.00000000000000     0.00000000000000
    4     0.00000000000000     0.00000000000000     0.00000000000000     0.14046323245156     0.00000000000000
    5     0.00000000000000     0.00000000000000     0.00000000000000     0.00000000000000     0.14046323245156
    6     0.96945722711242     0.20123413106538     0.00000000000000     0.00000000000000     0.00000000000000
    7     0.20123413106538     0.18300000000000     0.00000000000000     0.00000000000000     0.00000000000000
    8     0.00000000000000     0.00000000000000     1.81750000000000     0.00000000000000     0.00000000000000
    9     0.00000000000000     0.00000000000000     0.00000000000000     1.81750000000000     0.00000000000000
   10     0.00000000000000     0.00000000000000     0.00000000000000     0.00000000000000     1.81750000000000



  ## Potential (Symmetry 0) ##
  Irrep: 1 Size: 10 x 10

                 1                   2                   3                   4                   5

    1    -1.85715728787255    -0.97132057979059    -0.14329955698875     0.00000000000000     0.00000000000000
    2    -0.97132057979059    -0.96798641086883    -0.12812419356951     0.00000000000000     0.00000000000000
    3    -0.14329955698875    -0.12812419356951    -1.46155564436400     0.00000000000000     0.00000000000000
    4     0.00000000000000     0.00000000000000     0.00000000000000    -1.34989416459520     0.00000000000000
    5     0.00000000000000     0.00000000000000     0.00000000000000     0.00000000000000    -1.34989416459520
    6    -0.53408158278760    -0.65902488960884    -0.65570025704335     0.00000000000000     0.00000000000000
    7    -0.65902488960884    -0.78680904590417    -0.33631177773416     0.00000000000000     0.00000000000000
    8     0.65570025704335     0.33631177773416     0.74853605126880     0.00000000000000     0.00000000000000
    9     0.00000000000000     0.00000000000000     0.00000000000000    -0.28933847326964     0.00000000000000
   10     0.00000000000000     0.00000000000000     0.00000000000000     0.00000000000000    -0.28933847326964

                 6                   7                   8                   9                  10

    1    -0.53408158278760    -0.65902488960884     0.65570025704335     0.00000000000000     0.00000000000000
    2    -0.65902488960884    -0.78680904590417     0.33631177773416     0.00000000000000     0.00000000000000
    3    -0.65570025704335    -0.33631177773416     0.74853605126880     0.00000000000000     0.00000000000000
    4     0.00000000000000     0.00000000000000     0.00000000000000    -0.28933847326964     0.00000000000000
    5     0.00000000000000     0.00000000000000     0.00000000000000     0.00000000000000    -0.28933847326964
    6    -1.85715728787255    -0.97132057979059     0.14329955698875     0.00000000000000     0.00000000000000
    7    -0.97132057979059    -0.96798641086883     0.12812419356951     0.00000000000000     0.00000000000000
    8     0.14329955698875     0.12812419356951    -1.46155564436400     0.00000000000000     0.00000000000000
    9     0.00000000000000     0.00000000000000     0.00000000000000    -1.34989416459520     0.00000000000000
   10     0.00000000000000     0.00000000000000     0.00000000000000     0.00000000000000    -1.34989416459520



  ## One Electron Ints (Symmetry 0) ##
  Irrep: 1 Size: 10 x 10

                 1                   2                   3                   4                   5

    1    -0.88770006076013    -0.77008644872520    -0.14329955698875     0.00000000000000     0.00000000000000
    2    -0.77008644872520    -0.78498641086883    -0.12812419356951     0.00000000000000     0.00000000000000
    3    -0.14329955698875    -0.12812419356951     0.35594435563600     0.00000000000000     0.00000000000000
    4     0.00000000000000     0.00000000000000     0.00000000000000     0.46760583540480     0.00000000000000
    5     0.00000000000000     0.00000000000000     0.00000000000000     0.00000000000000     0.46760583540480
    6    -0.48087661248034    -0.56461315754976    -0.41621643740680     0.00000000000000     0.00000000000000
    7    -0.56461315754976    -0.67091682669332    -0.25473382977380     0.00000000000000     0.00000000000000
    8     0.41621643740680     0.25473382977380    -0.02705032475585     0.00000000000000     0.00000000000000
    9     0.00000000000000     0.00000000000000     0.00000000000000    -0.14887524081807     0.00000000000000
   10     0.00000000000000     0.00000000000000     0.00000000000000     0.00000000000000    -0.14887524081807

                 6                   7                   8                   9                  10

    1    -0.48087661248034    -0.56461315754976     0.41621643740680     0.00000000000000     0.00000000000000
    2    -0.56461315754976    -0.67091682669332     0.25473382977380     0.00000000000000     0.00000000000000
    3    -0.41621643740680    -0.25473382977380    -0.02705032475585     0.00000000000000     0.00000000000000
    4     0.00000000000000     0.00000000000000     0.00000000000000    -0.14887524081807     0.00000000000000
    5     0.00000000000000     0.00000000000000     0.00000000000000     0.00000000000000    -0.14887524081807
    6    -0.88770006076013    -0.77008644872520     0.14329955698875     0.00000000000000     0.00000000000000
    7    -0.77008644872520    -0.78498641086883     0.12812419356951     0.00000000000000     0.00000000000000
    8     0.14329955698875     0.12812419356951     0.35594435563600     0.00000000000000     0.00000000000000
    9     0.00000000000000     0.00000000000000     0.00000000000000     0.46760583540480     0.00000000000000
   10     0.00000000000000     0.00000000000000     0.00000000000000     0.00000000000000     0.46760583540480




	There are 0 unique integrals

  ## Fock (Symmetry 0) ##
  Irrep: 1 Size: 10 x 10

                 1                   2                   3                   4                   5

    1    -0.49199376288016    -0.30161009834499     0.10441608244013     0.00000000000000     0.00000000000000
    2    -0.30161009834499    -0.33845555741770     0.17911410733798    -0.00000000000000     0.00000000000000
    3     0.10441608244013     0.17911410733798     0.83434572546911    -0.00000000000000     0.00000000000000
    4     0.00000000000000    -0.00000000000000    -0.00000000000000     0.52108079228006     0.00000000000000
    5     0.00000000000000     0.00000000000000     0.00000000000000     0.00000000000000     0.52108079228006
    6    -0.18476126529289    -0.12647562476401    -0.47239875753980    -0.00000000000000     0.00000000000000
    7    -0.12647562476401    -0.15078029993274    -0.18438741851692     0.00000000000000     0.00000000000000
    8     0.47239875753980     0.18438741851692     0.44963782262485    -0.00000000000000     0.00000000000000
    9    -0.00000000000000     0.00000000000000     0.00000000000000    -0.25720997123888     0.00000000000000
   10     0.00000000000000     0.00000000000000     0.00000000000000     0.00000000000000    -0.25720997123888

                 6                   7                   8                   9                  10

    1    -0.18476126529289    -0.12647562476402     0.47239875753980    -0.00000000000000     0.00000000000000
    2    -0.12647562476401    -0.15078029993274     0.18438741851692     0.00000000000000     0.00000000000000
    3    -0.47239875753980    -0.18438741851692     0.44963782262485     0.00000000000000     0.00000000000000
    4    -0.00000000000000     0.00000000000000    -0.00000000000000    -0.25720997123888     0.00000000000000
    5     0.00000000000000     0.00000000000000     0.00000000000000     0.00000000000000    -0.25720997123888
    6    -0.49199376288016    -0.30161009834499    -0.10441608244013     0.00000000000000     0.00000000000000
    7    -0.30161009834500    -0.33845555741770    -0.17911410733798    -0.00000000000000     0.00000000000000
    8    -0.10441608244013    -0.17911410733798     0.83434572546911     0.00000000000000     0.00000000000000
    9     0.00000000000000    -0.00000000000000     0.00000000000000     0.52108079228006     0.00000000000000
   10     0.00000000000000     0.00000000000000     0.00000000000000     0.00000000000000     0.52108079228006



  ## C (Symmetry 0) ##
  Irrep: 1 Size: 10 x 10

                 1                   2                   3                   4                   5

    1     0.98844083609088     0.82823652591810     0.06775269405210     0.00000000000000    -0.11026016038087
    2    -1.53091530946473    -0.69475590439948     0.83986300999943     0.00000000000000    -0.09829066437087
    3    -0.51380626786500     0.71884515360413    -0.10079553703908    -0.00000000000000    -0.07877321366916
    4    -0.40152802995157     0.59626535777340     0.01103490141844     0.07556105082526     0.00000000000000
    5    -0.02125128835587    -0.01299049268547    -0.07133794393464     0.71894290786316     0.00000000000000
    6    -0.07425293614077    -0.16193172882168     0.35707375413498     0.00000000000000    -0.88021586982325
    7     0.91894265142613     0.02309347754901    -1.35052818033868    -0.00000000000000     0.47480182418180
    8    -0.11494991045557     0.30232674836407     0.11577967274550    -0.00000000000000    -0.78890132691143
    9     0.04220068039771    -0.06266761450915    -0.00115977045995    -0.71894290786316    -0.00000000000000
   10     0.20220024575546     0.12360101512435     0.67876119102627    -0.07556105082526     0.00000000000000

                 6                   7                   8                   9                  10

    1     0.45396429894802     0.46414378145527    -0.29327165712716    -0.00000000000000     0.29593461201583
    2     0.47303187760337     0.67036039237668     0.00568971360679     0.00000000000000     0.12767226991585
    3    -0.30723864293581     0.85956185162737     0.18795542777617    -0.00000000000000     0.48496798606586
    4     0.40152802995157    -0.59626535777340     0.01103490141844    -0.07556105082526    -0.00000000000000
    5     0.02125128835587     0.01299049268547    -0.07133794393464     0.71894290786316     0.00000000000000
    6    -0.09718152039688    -0.17755099475444    -0.36674832389974     0.00000000000000    -1.07951257076879
    7     0.03729423614970    -0.57749750982208     0.97852225941879    -0.00000000000000     0.21009780206511
    8     0.06138525167907     0.42244867826226    -0.04137617669896    -0.00000000000000     0.98819802785697
    9    -0.04220068039771     0.06266761450915    -0.00115977045995     0.71894290786316    -0.00000000000000
   10    -0.20220024575546    -0.12360101512435     0.67876119102627    -0.07556105082526     0.00000000000000




 In Bisection function HOMO = -1.081  LUMO =  1.522

 0.22058 = (-1.08084 + 1.52201)/2.0
 sum -  nocc_ = 3.00000000
 On Iteration in Bisection 0
 a: 3.00000  b:-0.50000

 -0.43013 = (-1.08084 + 0.22058)/2.0
 sum -  nocc_ = 1.00000000
 On Iteration in Bisection 1
 a: 1.00000  b:-0.50000

 -0.75549 = (-1.08084 + -0.43013)/2.0
 sum -  nocc_ = 0.00000000
 ef = -0.75549 sum = 1.00000 

 Iter: 0  T:      100.000  val:-0.755486  sumni 0.00000
 ne = 1.0000

Nuc Replusion =       0.481070189627
 1st iteration =       0.371385430617
 In Bisection function HOMO = -0.284  LUMO =  2.466

 1.09098 = (-0.28386 + 2.46582)/2.0
 sum -  nocc_ = 5.00000000
 On Iteration in Bisection 0
 a: 5.00000  b:-0.50000

 0.40356 = (-0.28386 + 1.09098)/2.0
 sum -  nocc_ = 1.99949762
 On Iteration in Bisection 1
 a: 1.99950  b:-0.50000

 0.05985 = (-0.28386 + 0.40356)/2.0
 sum -  nocc_ = 0.00000000
 ef = 0.05985 sum = 1.00000 

 Iter: 0  T:      100.000  val:0.059847  sumni 0.00000
 ne = 1.0000

 iter:1  failiter:1  energy:     -1.282926044496  total:     -0.801855854869  error:     -0.201755261074
 In Bisection function HOMO = -0.461  LUMO =  2.596

 1.06725 = (-0.46114 + 2.59565)/2.0
 sum -  nocc_ = 3.00000000
 On Iteration in Bisection 0
 a: 3.00000  b:-0.50000

 0.30306 = (-0.46114 + 1.06725)/2.0
 sum -  nocc_ = 1.00000000
 On Iteration in Bisection 1
 a: 1.00000  b:-0.50000

 -0.07904 = (-0.46114 + 0.30306)/2.0
 sum -  nocc_ = 0.00000000
 ef = -0.07904 sum = 1.00000 

 Iter: 1  T:      100.000  val:-0.079043  sumni 0.00000
 ne = 1.0000

 iter:2  failiter:2  energy:     -1.517081766448  total:     -1.036011576821  error:     -0.234155721952
 In Bisection function HOMO = -0.504  LUMO =  2.583

 1.03924 = (-0.50427 + 2.58275)/2.0
 sum -  nocc_ = 3.00000000
 On Iteration in Bisection 0
 a: 3.00000  b:-0.50000

 0.26748 = (-0.50427 + 1.03924)/2.0
 sum -  nocc_ = 1.00000000
 On Iteration in Bisection 1
 a: 1.00000  b:-0.50000

 -0.11840 = (-0.50427 + 0.26748)/2.0
 sum -  nocc_ = 0.00000000
 ef = -0.11840 sum = 1.00000 

 Iter: 2  T:      100.000  val:-0.118397  sumni 0.00000
 ne = 1.0000

 iter:3  failiter:3  energy:     -1.562333359504  total:     -1.081263169876  error:     -0.045251593055
 In Bisection function HOMO = -0.504  LUMO =  2.584

 1.03999 = (-0.50405 + 2.58402)/2.0
 sum -  nocc_ = 3.00000000
 On Iteration in Bisection 0
 a: 3.00000  b:-0.50000

 0.26797 = (-0.50405 + 1.03999)/2.0
 sum -  nocc_ = 1.00000000
 On Iteration in Bisection 1
 a: 1.00000  b:-0.50000

 -0.11804 = (-0.50405 + 0.26797)/2.0
 sum -  nocc_ = 0.00000000
 ef = -0.11804 sum = 1.00000 

 Iter: 3  T:      100.000  val:-0.118038  sumni 0.00000
 ne = 1.0000

 iter:4  failiter:4  energy:     -1.562219601209  total:     -1.081149411582  error:      0.000113758295
 In Bisection function HOMO = -0.504  LUMO =  2.584

 1.03999 = (-0.50406 + 2.58403)/2.0
 sum -  nocc_ = 3.00000000
 On Iteration in Bisection 0
 a: 3.00000  b:-0.50000

 0.26797 = (-0.50406 + 1.03999)/2.0
 sum -  nocc_ = 1.00000000
 On Iteration in Bisection 1
 a: 1.00000  b:-0.50000

 -0.11805 = (-0.50406 + 0.26797)/2.0
 sum -  nocc_ = 0.00000000
 ef = -0.11805 sum = 1.00000 

 Iter: 4  T:      100.000  val:-0.118046  sumni 0.00000
 ne = 1.0000

 iter:5  failiter:5  energy:     -1.562230213926  total:     -1.081160024299  error:     -0.000010612717
 In Bisection function HOMO = -0.504  LUMO =  2.584

 1.03997 = (-0.50407 + 2.58401)/2.0
 sum -  nocc_ = 3.00000000
 On Iteration in Bisection 0
 a: 3.00000  b:-0.50000

 0.26795 = (-0.50407 + 1.03997)/2.0
 sum -  nocc_ = 1.00000000
 On Iteration in Bisection 1
 a: 1.00000  b:-0.50000

 -0.11806 = (-0.50407 + 0.26795)/2.0
 sum -  nocc_ = 0.00000000
 ef = -0.11806 sum = 1.00000 

 Iter: 5  T:      100.000  val:-0.118056  sumni 0.00000
 ne = 1.0000

 iter:6  failiter:6  energy:     -1.562238324874  total:     -1.081168135247  error:     -0.000008110948
 In Bisection function HOMO = -0.504  LUMO =  2.584

 1.03997 = (-0.50407 + 2.58401)/2.0
 sum -  nocc_ = 3.00000000
 On Iteration in Bisection 0
 a: 3.00000  b:-0.50000

 0.26795 = (-0.50407 + 1.03997)/2.0
 sum -  nocc_ = 1.00000000
 On Iteration in Bisection 1
 a: 1.00000  b:-0.50000

 -0.11806 = (-0.50407 + 0.26795)/2.0
 sum -  nocc_ = 0.00000000
 ef = -0.11806 sum = 1.00000 

 Iter: 6  T:      100.000  val:-0.118059  sumni 0.00000
 ne = 1.0000

 iter:7  failiter:7  energy:     -1.562240412184  total:     -1.081170222557  error:     -0.000002087310
 In Bisection function HOMO = -0.504  LUMO =  2.584

 1.03997 = (-0.50407 + 2.58401)/2.0
 sum -  nocc_ = 3.00000000
 On Iteration in Bisection 0
 a: 3.00000  b:-0.50000

 0.26795 = (-0.50407 + 1.03997)/2.0
 sum -  nocc_ = 1.00000000
 On Iteration in Bisection 1
 a: 1.00000  b:-0.50000

 -0.11806 = (-0.50407 + 0.26795)/2.0
 sum -  nocc_ = 0.00000000
 ef = -0.11806 sum = 1.00000 

 Iter: 7  T:      100.000  val:-0.118060  sumni 0.00000
 ne = 1.0000

 iter:8  failiter:8  energy:     -1.562240860236  total:     -1.081170670609  error:     -0.000000448052
 In Bisection function HOMO = -0.504  LUMO =  2.584

 1.03997 = (-0.50407 + 2.58401)/2.0
 sum -  nocc_ = 3.00000000
 On Iteration in Bisection 0
 a: 3.00000  b:-0.50000

 0.26795 = (-0.50407 + 1.03997)/2.0
 sum -  nocc_ = 1.00000000
 On Iteration in Bisection 1
 a: 1.00000  b:-0.50000

 -0.11806 = (-0.50407 + 0.26795)/2.0
 sum -  nocc_ = 0.00000000
 ef = -0.11806 sum = 1.00000 

 Iter: 8  T:      100.000  val:-0.118060  sumni 0.00000
 ne = 1.0000

 iter:9  failiter:9  energy:     -1.562240950815  total:     -1.081170761188  error:     -0.000000090579
 In Bisection function HOMO = -0.504  LUMO =  2.584

 1.03997 = (-0.50407 + 2.58401)/2.0
 sum -  nocc_ = 3.00000000
 On Iteration in Bisection 0
 a: 3.00000  b:-0.50000

 0.26795 = (-0.50407 + 1.03997)/2.0
 sum -  nocc_ = 1.00000000
 On Iteration in Bisection 1
 a: 1.00000  b:-0.50000

 -0.11806 = (-0.50407 + 0.26795)/2.0
 sum -  nocc_ = 0.00000000
 ef = -0.11806 sum = 1.00000 

 Iter: 9  T:      100.000  val:-0.118060  sumni 0.00000
 ne = 1.0000

 iter:10  failiter:10  energy:     -1.562240968704  total:     -1.081170779077  error:     -0.000000017889
 In Bisection function HOMO = -0.504  LUMO =  2.584

 1.03997 = (-0.50407 + 2.58401)/2.0
 sum -  nocc_ = 3.00000000
 On Iteration in Bisection 0
 a: 3.00000  b:-0.50000

 0.26795 = (-0.50407 + 1.03997)/2.0
 sum -  nocc_ = 1.00000000
 On Iteration in Bisection 1
 a: 1.00000  b:-0.50000

 -0.11806 = (-0.50407 + 0.26795)/2.0
 sum -  nocc_ = 0.00000000
 ef = -0.11806 sum = 1.00000 

 Iter: 10  T:      100.000  val:-0.118060  sumni 0.00000
 ne = 1.0000

 iter:11  failiter:11  energy:     -1.562240972203  total:     -1.081170782576  error:     -0.000000003499
 In Bisection function HOMO = -0.504  LUMO =  2.584

 1.03997 = (-0.50407 + 2.58401)/2.0
 sum -  nocc_ = 3.00000000
 On Iteration in Bisection 0
 a: 3.00000  b:-0.50000

 0.26795 = (-0.50407 + 1.03997)/2.0
 sum -  nocc_ = 1.00000000
 On Iteration in Bisection 1
 a: 1.00000  b:-0.50000

 -0.11806 = (-0.50407 + 0.26795)/2.0
 sum -  nocc_ = 0.00000000
 ef = -0.11806 sum = 1.00000 

 Iter: 11  T:      100.000  val:-0.118060  sumni 0.00000
 ne = 1.0000

 iter:12  failiter:12  energy:     -1.562240972885  total:     -1.081170783258  error:     -0.000000000682
 In Bisection function HOMO = -0.504  LUMO =  2.584

 1.03997 = (-0.50407 + 2.58401)/2.0
 sum -  nocc_ = 3.00000000
 On Iteration in Bisection 0
 a: 3.00000  b:-0.50000

 0.26795 = (-0.50407 + 1.03997)/2.0
 sum -  nocc_ = 1.00000000
 On Iteration in Bisection 1
 a: 1.00000  b:-0.50000

 -0.11806 = (-0.50407 + 0.26795)/2.0
 sum -  nocc_ = 0.00000000
 ef = -0.11806 sum = 1.00000 

 Iter: 12  T:      100.000  val:-0.118060  sumni 0.00000
 ne = 1.0000

 iter:13  failiter:13  energy:     -1.562240973017  total:     -1.081170783390  error:     -0.000000000133
 In Bisection function HOMO = -0.504  LUMO =  2.584

 1.03997 = (-0.50407 + 2.58401)/2.0
 sum -  nocc_ = 3.00000000
 On Iteration in Bisection 0
 a: 3.00000  b:-0.50000

 0.26795 = (-0.50407 + 1.03997)/2.0
 sum -  nocc_ = 1.00000000
 On Iteration in Bisection 1
 a: 1.00000  b:-0.50000

 -0.11806 = (-0.50407 + 0.26795)/2.0
 sum -  nocc_ = 0.00000000
 ef = -0.11806 sum = 1.00000 

 Iter: 13  T:      100.000  val:-0.118060  sumni 0.00000
 ne = 1.0000

 iter:14  failiter:14  energy:     -1.562240973043  total:     -1.081170783416  error:     -0.000000000026
 In Bisection function HOMO = -0.504  LUMO =  2.584

 1.03997 = (-0.50407 + 2.58401)/2.0
 sum -  nocc_ = 3.00000000
 On Iteration in Bisection 0
 a: 3.00000  b:-0.50000

 0.26795 = (-0.50407 + 1.03997)/2.0
 sum -  nocc_ = 1.00000000
 On Iteration in Bisection 1
 a: 1.00000  b:-0.50000

 -0.11806 = (-0.50407 + 0.26795)/2.0
 sum -  nocc_ = 0.00000000
 ef = -0.11806 sum = 1.00000 

 Iter: 14  T:      100.000  val:-0.118060  sumni 0.00000
 ne = 1.0000

 iter:15  failiter:15  energy:     -1.562240973048  total:     -1.081170783421  error:     -0.000000000005
 In Bisection function HOMO = -0.504  LUMO =  2.584

 1.03997 = (-0.50407 + 2.58401)/2.0
 sum -  nocc_ = 3.00000000
 On Iteration in Bisection 0
 a: 3.00000  b:-0.50000

 0.26795 = (-0.50407 + 1.03997)/2.0
 sum -  nocc_ = 1.00000000
 On Iteration in Bisection 1
 a: 1.00000  b:-0.50000

 -0.11806 = (-0.50407 + 0.26795)/2.0
 sum -  nocc_ = 0.00000000
 ef = -0.11806 sum = 1.00000 

 Iter: 15  T:      100.000  val:-0.118060  sumni 0.00000
 ne = 1.0000

 iter:16  failiter:16  energy:     -1.562240973049  total:     -1.081170783422  error:     -0.000000000001
 FTHFEnergy =    -1.081171
 FD_dis[0] = 1.00000000 with -0.504070 eig value
 FD_dis[1] = 0.00000000 with 0.121816 eig value
 FD_dis[2] = 0.00000000 with 0.561524 eig value
 FD_dis[3] = 0.00000000 with 0.758240 eig value
 FD_dis[4] = 0.00000000 with 1.298118 eig value
 FD_dis[5] = 0.00000000 with 1.298118 eig value
 FD_dis[6] = 0.00000000 with 1.571229 eig value
 FD_dis[7] = 0.00000000 with 1.810600 eig value
 FD_dis[8] = 0.00000000 with 1.810600 eig value
 FD_dis[9] = 0.00000000 with 2.584006 eig value
*** PSI4 exiting successfully. Buy a developer a beer!
