    -----------------------------------------------------------------------
          PSI4: An Open-Source Ab Initio Electronic Structure Package
                              PSI 4.0 Driver

               Git: Rev {master} 556e8139d3cfa1f96ccffe2cdf22cc56a185d2b2

    J. M. Turney, A. C. Simmonett, R. M. Parrish, E. G. Hohenstein,
    F. A. Evangelista, J. T. Fermann, B. J. Mintz, L. A. Burns, J. J. Wilke,
    M. L. Abrams, N. J. Russ, M. L. Leininger, C. L. Janssen, E. T. Seidl,
    W. D. Allen, H. F. Schaefer, R. A. King, E. F. Valeev, C. D. Sherrill,
    and T. D. Crawford, WIREs Comput. Mol. Sci. 2, 556-565 (2012)
    (doi: 10.1002/wcms.93)

                         Additional Contributions by
    A. E. DePrince, M. Saitow, U. Bozkaya, A. Yu. Sokolov
    -----------------------------------------------------------------------

    Process ID:  11933
    PSI4DATADIR: /Users/kevinhannon/Programs/psi4cmake/psi4/lib
    Memory level set to 256.000 MB

  ==> Input File <==

--------------------------------------------------------------------------

# PYTHONPATH must include directory above plugin directory.
#     Define either externally or here, then import plugin.
sys.path.insert(0, '/Users/kevinhannon/Programs/Quantum_Programs/Quantum-Programs/GS/')
import scf

molecule {
0 1
H
H 1 0.80000
symmetry c1
units angstrom
}


set {
  basis cc-pvdz
  reference rhf
  scf_type  pk
}

set scf {
  DO_FTHF true
  MAX_ITER 130
  MAX_TEMP 100
  TEMP_INCREMENT 0
  bisect  true
  bisect_iter  40
}
energy('rhf')

energy('scf')


--------------------------------------------------------------------------

*** tstart() called on Kevins-MacBook-Pro.local
*** at Fri Apr 10 18:02:03 2015

/Users/kevinhannon/Programs/Quantum_Programs/Quantum-Programs/GS/scf/scf.so loaded.

*** tstart() called on Kevins-MacBook-Pro.local
*** at Fri Apr 10 18:02:04 2015


         ---------------------------------------------------------
                                   SCF
            by Justin Turney, Rob Parrish, and Andy Simmonett
                              RHF Reference
                        1 Threads,    256 MiB Core
         ---------------------------------------------------------

  ==> Geometry <==

    Molecular point group: c1
    Full point group: D_inf_h

    Geometry (in Angstrom), charge = 0, multiplicity = 1:

       Center              X                  Y                   Z       
    ------------   -----------------  -----------------  -----------------
           H          0.000000000000     0.000000000000    -0.400000000000
           H          0.000000000000     0.000000000000     0.400000000000

  Running in c1 symmetry.

  Rotational constants: A = ************  B =     52.27107  C =     52.27107 [cm^-1]
  Rotational constants: A = ************  B = 1567047.19605  C = 1567047.19605 [MHz]
  Nuclear repulsion =    0.661471510737500

  Charge       = 0
  Multiplicity = 1
  Electrons    = 2
  Nalpha       = 1
  Nbeta        = 1

  ==> Algorithm <==

  SCF Algorithm Type is PK.
  DIIS enabled.
  MOM disabled.
  Fractional occupation disabled.
  Guess Type is CORE.
  Energy threshold   = 1.00e-06
  Density threshold  = 1.00e-06
  Integral threshold = 0.00e+00

  ==> Primary Basis <==

  Basis Set: CC-PVDZ
    Number of shells: 6
    Number of basis function: 10
    Number of Cartesian functions: 10
    Spherical Harmonics?: true
    Max angular momentum: 1

  ==> Pre-Iterations <==

   -------------------------------------------------------
    Irrep   Nso     Nmo     Nalpha   Nbeta   Ndocc  Nsocc
   -------------------------------------------------------
     A         10      10       0       0       0       0
   -------------------------------------------------------
    Total      10      10       1       1       1       0
   -------------------------------------------------------

  Starting with a DF guess...

 OEINTS: Overlap, kinetic, potential, dipole, and quadrupole integrals
         stored in file 35.

  ==> Integral Setup <==

  ==> DFJK: Density-Fitted J/K Matrices <==

    J tasked:                  Yes
    K tasked:                  Yes
    wK tasked:                  No
    OpenMP threads:              1
    Integrals threads:           1
    Memory (MB):               183
    Algorithm:                Core
    Integral Cache:           NONE
    Schwarz Cutoff:          1E-12
    Fitting Condition:       1E-12

   => Auxiliary Basis Set <=

  Basis Set: 
    Number of shells: 18
    Number of basis function: 46
    Number of Cartesian functions: 50
    Spherical Harmonics?: true
    Max angular momentum: 2

  Minimum eigenvalue in the overlap matrix is 6.1160120649E-02.
  Using Symmetric Orthogonalization.
  SCF Guess: Core (One-Electron) Hamiltonian.

  ==> Iterations <==

                           Total Energy        Delta E     RMS |[F,P]|

   @DF-RHF iter   1:    -1.07344704427797   -1.07345e+00   2.23369e-02 
   @DF-RHF iter   2:    -1.12515610498884   -5.17091e-02   4.07233e-03 DIIS
   @DF-RHF iter   3:    -1.12699900283006   -1.84290e-03   2.09863e-04 DIIS
   @DF-RHF iter   4:    -1.12700147279628   -2.46997e-06   1.41134e-05 DIIS
   @DF-RHF iter   5:    -1.12700149542920   -2.26329e-08   2.95123e-08 DIIS

  DF guess converged.

  ==> Integral Setup <==

 MINTS: Wrapper to libmints.
   by Justin Turney

   Calculation information:
      Number of atoms:                   2
      Number of AO shells:               6
      Number of SO shells:               6
      Number of primitives:             10
      Number of atomic orbitals:        10
      Number of basis functions:        10

      Number of irreps:                  1
      Integral cutoff                 0.00e+00
      Number of functions per irrep: [  10 ]

 OEINTS: Overlap, kinetic, potential, dipole, and quadrupole integrals
         stored in file 35.

      Computing two-electron integrals...done
      Computed 512 non-zero two-electron integrals.
        Stored in file 33.

	Batch   1 pq = [       0,      55] index = [             0,1540]
  ==> DiskJK: Disk-Based J/K Matrices <==

    J tasked:                  Yes
    K tasked:                  Yes
    wK tasked:                  No
    Memory (MB):               183
    Schwarz Cutoff:          1E-12

   @RHF iter   6:    -1.12700072065743    7.74772e-07   1.87896e-07 DIIS

  ==> Post-Iterations <==

    Orbital Energies (a.u.)
    -----------------------

    Doubly Occupied:                                                      

       1A     -0.574936  

    Virtual:                                                              

       2A      0.185669     3A      0.493653     4A      0.896953  
       5A      1.287321     6A      1.287321     7A      1.897002  
       8A      2.002823     9A      2.002823    10A      3.294383  

    Final Occupation by Irrep:
              A 
    DOCC [     1 ]

  Energy converged.

  @RHF Final Energy:    -1.12700072065743

   => Energetics <=

    Nuclear Repulsion Energy =              0.6614715107375000
    One-Electron Energy =                  -2.4270716837770863
    Two-Electron Energy =                   0.6385994523821540
    DFT Exchange-Correlation Energy =       0.0000000000000000
    Empirical Dispersion Energy =           0.0000000000000000
    PCM Polarization Energy =               0.0000000000000000
    EFP Energy =                            0.0000000000000000
    Total Energy =                         -1.1270007206574322

    Alert: EFP and PCM quantities not currently incorporated into SCF psivars.

Properties will be evaluated at   0.000000,   0.000000,   0.000000 Bohr
  ==> Properties <==


Properties computed using the SCF density matrix

  Nuclear Dipole Moment: (a.u.)
     X:     0.0000      Y:     0.0000      Z:     0.0000

  Electronic Dipole Moment: (a.u.)
     X:     0.0000      Y:    -0.0000      Z:     0.0000

  Dipole Moment: (a.u.)
     X:     0.0000      Y:    -0.0000      Z:     0.0000     Total:     0.0000

  Dipole Moment: (Debye)
     X:     0.0000      Y:    -0.0000      Z:     0.0000     Total:     0.0000


  Saving occupied orbitals to File 180.

*** tstop() called on Kevins-MacBook-Pro.local at Fri Apr 10 18:02:04 2015
Module time:
	user time   =       0.20 seconds =       0.00 minutes
	system time =       0.01 seconds =       0.00 minutes
	total time  =          0 seconds =       0.00 minutes
Total time:
	user time   =       0.21 seconds =       0.00 minutes
	system time =       0.01 seconds =       0.00 minutes
	total time  =          1 seconds =       0.02 minutes

*** tstart() called on Kevins-MacBook-Pro.local
*** at Fri Apr 10 18:02:04 2015


         ---------------------------------------------------------
                                   SCF
            by Justin Turney, Rob Parrish, and Andy Simmonett
                              RHF Reference
                        1 Threads,    256 MiB Core
         ---------------------------------------------------------

  ==> Geometry <==

    Molecular point group: c1
    Full point group: D_inf_h

    Geometry (in Angstrom), charge = 0, multiplicity = 1:

       Center              X                  Y                   Z       
    ------------   -----------------  -----------------  -----------------
           H          0.000000000000     0.000000000000    -0.400000000000
           H          0.000000000000     0.000000000000     0.400000000000

  Running in c1 symmetry.

  Rotational constants: A = ************  B =     52.27107  C =     52.27107 [cm^-1]
  Rotational constants: A = ************  B = 1567047.19605  C = 1567047.19605 [MHz]
  Nuclear repulsion =    0.661471510737500

  Charge       = 0
  Multiplicity = 1
  Electrons    = 2
  Nalpha       = 1
  Nbeta        = 1

  ==> Algorithm <==

  SCF Algorithm Type is PK.
  DIIS enabled.
  MOM disabled.
  Fractional occupation disabled.
  Guess Type is CORE.
  Energy threshold   = 1.00e-08
  Density threshold  = 1.00e-08
  Integral threshold = 0.00e+00

  ==> Primary Basis <==

  Basis Set: CC-PVDZ
    Number of shells: 6
    Number of basis function: 10
    Number of Cartesian functions: 10
    Spherical Harmonics?: true
    Max angular momentum: 1

  ==> Pre-Iterations <==

   -------------------------------------------------------
    Irrep   Nso     Nmo     Nalpha   Nbeta   Ndocc  Nsocc
   -------------------------------------------------------
     A         10      10       0       0       0       0
   -------------------------------------------------------
    Total      10      10       1       1       1       0
   -------------------------------------------------------

  Starting with a DF guess...

 OEINTS: Overlap, kinetic, potential, dipole, and quadrupole integrals
         stored in file 35.

  ==> Integral Setup <==

  ==> DFJK: Density-Fitted J/K Matrices <==

    J tasked:                  Yes
    K tasked:                  Yes
    wK tasked:                  No
    OpenMP threads:              1
    Integrals threads:           1
    Memory (MB):               183
    Algorithm:                Core
    Integral Cache:           NONE
    Schwarz Cutoff:          1E-12
    Fitting Condition:       1E-12

   => Auxiliary Basis Set <=

  Basis Set: 
    Number of shells: 18
    Number of basis function: 46
    Number of Cartesian functions: 50
    Spherical Harmonics?: true
    Max angular momentum: 2

  Minimum eigenvalue in the overlap matrix is 6.1160120649E-02.
  Using Symmetric Orthogonalization.
  SCF Guess: Core (One-Electron) Hamiltonian.

  ==> Iterations <==

                           Total Energy        Delta E     RMS |[F,P]|

   @DF-RHF iter   1:    -1.07344704427797   -1.07345e+00   2.23369e-02 
   @DF-RHF iter   2:    -1.12515610498884   -5.17091e-02   4.07233e-03 DIIS
   @DF-RHF iter   3:    -1.12699900283006   -1.84290e-03   2.09863e-04 DIIS
   @DF-RHF iter   4:    -1.12700147279628   -2.46997e-06   1.41134e-05 DIIS
   @DF-RHF iter   5:    -1.12700149542920   -2.26329e-08   2.95123e-08 DIIS
   @DF-RHF iter   6:    -1.12700149542930   -9.99201e-14   2.79295e-11 DIIS

  DF guess converged.

  ==> Integral Setup <==

 MINTS: Wrapper to libmints.
   by Justin Turney

   Calculation information:
      Number of atoms:                   2
      Number of AO shells:               6
      Number of SO shells:               6
      Number of primitives:             10
      Number of atomic orbitals:        10
      Number of basis functions:        10

      Number of irreps:                  1
      Integral cutoff                 0.00e+00
      Number of functions per irrep: [  10 ]

 OEINTS: Overlap, kinetic, potential, dipole, and quadrupole integrals
         stored in file 35.

      Computing two-electron integrals...done
      Computed 512 non-zero two-electron integrals.
        Stored in file 33.

	Batch   1 pq = [       0,      55] index = [             0,1540]
  ==> DiskJK: Disk-Based J/K Matrices <==

    J tasked:                  Yes
    K tasked:                  Yes
    wK tasked:                  No
    Memory (MB):               183
    Schwarz Cutoff:          1E-12

   @RHF iter   7:    -1.12700072065743    7.74772e-07   1.87876e-07 DIIS
   @RHF iter   8:    -1.12700072065992   -2.48224e-12   2.65174e-08 DIIS
   @RHF iter   9:    -1.12700072065997   -5.63993e-14   8.10394e-10 DIIS

  ==> Post-Iterations <==

    Orbital Energies (a.u.)
    -----------------------

    Doubly Occupied:                                                      

       1A     -0.574937  

    Virtual:                                                              

       2A      0.185669     3A      0.493653     4A      0.896952  
       5A      1.287321     6A      1.287321     7A      1.897001  
       8A      2.002822     9A      2.002822    10A      3.294382  

    Final Occupation by Irrep:
              A 
    DOCC [     1 ]

  Energy converged.

  @RHF Final Energy:    -1.12700072065997

   => Energetics <=

    Nuclear Repulsion Energy =              0.6614715107375000
    One-Electron Energy =                  -2.4270710153296902
    Two-Electron Energy =                   0.6385987839322171
    DFT Exchange-Correlation Energy =       0.0000000000000000
    Empirical Dispersion Energy =           0.0000000000000000
    PCM Polarization Energy =               0.0000000000000000
    EFP Energy =                            0.0000000000000000
    Total Energy =                         -1.1270007206599730

    Alert: EFP and PCM quantities not currently incorporated into SCF psivars.

Properties will be evaluated at   0.000000,   0.000000,   0.000000 Bohr
  ==> Properties <==


Properties computed using the SCF density matrix

  Nuclear Dipole Moment: (a.u.)
     X:     0.0000      Y:     0.0000      Z:     0.0000

  Electronic Dipole Moment: (a.u.)
     X:    -0.0000      Y:     0.0000      Z:    -0.0000

  Dipole Moment: (a.u.)
     X:    -0.0000      Y:     0.0000      Z:    -0.0000     Total:     0.0000

  Dipole Moment: (Debye)
     X:    -0.0000      Y:     0.0000      Z:    -0.0000     Total:     0.0000


  Saving occupied orbitals to File 180.

*** tstop() called on Kevins-MacBook-Pro.local at Fri Apr 10 18:02:04 2015
Module time:
	user time   =       0.18 seconds =       0.00 minutes
	system time =       0.01 seconds =       0.00 minutes
	total time  =          0 seconds =       0.00 minutes
Total time:
	user time   =       0.40 seconds =       0.01 minutes
	system time =       0.02 seconds =       0.00 minutes
	total time  =          1 seconds =       0.02 minutes
Reading options from the SCF block
Calling plugin scf.so.
    Molecular point group: c1
    Full point group: D_inf_h

    Geometry (in Angstrom), charge = 0, multiplicity = 1:

       Center              X                  Y                   Z       
    ------------   -----------------  -----------------  -----------------
           H          0.000000000000     0.000000000000    -0.400000000000
           H          0.000000000000     0.000000000000     0.400000000000


    Nuclear repulsion energy:       0.66147151

  ## Overlap (Symmetry 0) ##
  Irrep: 1 Size: 10 x 10

                 1                   2                   3                   4                   5

    1     1.00000000000000     0.68486025149275     0.00000000000000     0.00000000000000     0.00000000000000
    2     0.68486025149275     1.00000000000000     0.00000000000000     0.00000000000000     0.00000000000000
    3     0.00000000000000     0.00000000000000     1.00000000000000     0.00000000000000     0.00000000000000
    4     0.00000000000000     0.00000000000000     0.00000000000000     1.00000000000000     0.00000000000000
    5     0.00000000000000     0.00000000000000     0.00000000000000     0.00000000000000     1.00000000000000
    6     0.52286174201775     0.54755534784951     0.52022369544393     0.00000000000000     0.00000000000000
    7     0.54755534784951     0.86986750500462     0.17145475865095     0.00000000000000     0.00000000000000
    8    -0.52022369544393    -0.17145475865095    -0.28824348757569     0.00000000000000     0.00000000000000
    9     0.00000000000000     0.00000000000000     0.00000000000000     0.43571255594559     0.00000000000000
   10     0.00000000000000     0.00000000000000     0.00000000000000     0.00000000000000     0.43571255594559

                 6                   7                   8                   9                  10

    1     0.52286174201775     0.54755534784951    -0.52022369544393     0.00000000000000     0.00000000000000
    2     0.54755534784951     0.86986750500462    -0.17145475865095     0.00000000000000     0.00000000000000
    3     0.52022369544393     0.17145475865095    -0.28824348757569     0.00000000000000     0.00000000000000
    4     0.00000000000000     0.00000000000000     0.00000000000000     0.43571255594559     0.00000000000000
    5     0.00000000000000     0.00000000000000     0.00000000000000     0.00000000000000     0.43571255594559
    6     1.00000000000000     0.68486025149275    -0.00000000000000     0.00000000000000     0.00000000000000
    7     0.68486025149275     1.00000000000000     0.00000000000000     0.00000000000000     0.00000000000000
    8    -0.00000000000000     0.00000000000000     1.00000000000000     0.00000000000000     0.00000000000000
    9     0.00000000000000     0.00000000000000     0.00000000000000     1.00000000000000     0.00000000000000
   10     0.00000000000000     0.00000000000000     0.00000000000000     0.00000000000000     1.00000000000000



  ## Kinetic (Symmetry 0) ##
  Irrep: 1 Size: 10 x 10

                 1                   2                   3                   4                   5

    1     0.96945722711242     0.20123413106538    -0.00000000000000     0.00000000000000     0.00000000000000
    2     0.20123413106538     0.18300000000000     0.00000000000000     0.00000000000000     0.00000000000000
    3    -0.00000000000000     0.00000000000000     1.81750000000000     0.00000000000000     0.00000000000000
    4     0.00000000000000     0.00000000000000     0.00000000000000     1.81750000000000     0.00000000000000
    5     0.00000000000000     0.00000000000000     0.00000000000000     0.00000000000000     1.81750000000000
    6     0.22320202666956     0.13668895243098     0.57466260355549     0.00000000000000     0.00000000000000
    7     0.13668895243098     0.14439056551685     0.08100511914912     0.00000000000000     0.00000000000000
    8    -0.57466260355549    -0.08100511914912    -0.87610769381398     0.00000000000000     0.00000000000000
    9     0.00000000000000     0.00000000000000     0.00000000000000     0.52874954861112     0.00000000000000
   10     0.00000000000000     0.00000000000000     0.00000000000000     0.00000000000000     0.52874954861112

                 6                   7                   8                   9                  10

    1     0.22320202666956     0.13668895243098    -0.57466260355549     0.00000000000000     0.00000000000000
    2     0.13668895243098     0.14439056551685    -0.08100511914912     0.00000000000000     0.00000000000000
    3     0.57466260355549     0.08100511914912    -0.87610769381398     0.00000000000000     0.00000000000000
    4     0.00000000000000     0.00000000000000     0.00000000000000     0.52874954861112     0.00000000000000
    5     0.00000000000000     0.00000000000000     0.00000000000000     0.00000000000000     0.52874954861112
    6     0.96945722711242     0.20123413106538     0.00000000000000     0.00000000000000     0.00000000000000
    7     0.20123413106538     0.18300000000000     0.00000000000000     0.00000000000000     0.00000000000000
    8     0.00000000000000     0.00000000000000     1.81750000000000     0.00000000000000     0.00000000000000
    9     0.00000000000000     0.00000000000000     0.00000000000000     1.81750000000000     0.00000000000000
   10     0.00000000000000     0.00000000000000     0.00000000000000     0.00000000000000     1.81750000000000



  ## Potential (Symmetry 0) ##
  Irrep: 1 Size: 10 x 10

                 1                   2                   3                   4                   5

    1    -2.01999573373867    -1.05947555189430    -0.23854214439466     0.00000000000000     0.00000000000000
    2    -1.05947555189430    -1.02640812556924    -0.18730269822997     0.00000000000000     0.00000000000000
    3    -0.23854214439466    -0.18730269822997    -1.69525913851199     0.00000000000000     0.00000000000000
    4     0.00000000000000     0.00000000000000     0.00000000000000    -1.47082028848975     0.00000000000000
    5     0.00000000000000     0.00000000000000     0.00000000000000     0.00000000000000    -1.47082028848975
    6    -1.04010027005479    -0.87663383857620    -1.12926131703013     0.00000000000000     0.00000000000000
    7    -0.87663383857620    -0.92645125286486    -0.40016799044116     0.00000000000000     0.00000000000000
    8     1.12926131703013     0.40016799044116     0.63682084985905     0.00000000000000     0.00000000000000
    9     0.00000000000000     0.00000000000000     0.00000000000000    -0.67932545791057     0.00000000000000
   10     0.00000000000000     0.00000000000000     0.00000000000000     0.00000000000000    -0.67932545791057

                 6                   7                   8                   9                  10

    1    -1.04010027005479    -0.87663383857620     1.12926131703013     0.00000000000000     0.00000000000000
    2    -0.87663383857620    -0.92645125286486     0.40016799044116     0.00000000000000     0.00000000000000
    3    -1.12926131703013    -0.40016799044116     0.63682084985905     0.00000000000000     0.00000000000000
    4     0.00000000000000     0.00000000000000     0.00000000000000    -0.67932545791057     0.00000000000000
    5     0.00000000000000     0.00000000000000     0.00000000000000     0.00000000000000    -0.67932545791057
    6    -2.01999573373867    -1.05947555189430     0.23854214439466     0.00000000000000     0.00000000000000
    7    -1.05947555189430    -1.02640812556924     0.18730269822997     0.00000000000000     0.00000000000000
    8     0.23854214439466     0.18730269822997    -1.69525913851199     0.00000000000000     0.00000000000000
    9     0.00000000000000     0.00000000000000     0.00000000000000    -1.47082028848975     0.00000000000000
   10     0.00000000000000     0.00000000000000     0.00000000000000     0.00000000000000    -1.47082028848975



  ## One Electron Ints (Symmetry 0) ##
  Irrep: 1 Size: 10 x 10

                 1                   2                   3                   4                   5

    1    -1.05053850662625    -0.85824142082891    -0.23854214439466     0.00000000000000     0.00000000000000
    2    -0.85824142082891    -0.84340812556924    -0.18730269822997     0.00000000000000     0.00000000000000
    3    -0.23854214439466    -0.18730269822997     0.12224086148801     0.00000000000000     0.00000000000000
    4     0.00000000000000     0.00000000000000     0.00000000000000     0.34667971151025     0.00000000000000
    5     0.00000000000000     0.00000000000000     0.00000000000000     0.00000000000000     0.34667971151025
    6    -0.81689824338523    -0.73994488614523    -0.55459871347464     0.00000000000000     0.00000000000000
    7    -0.73994488614523    -0.78206068734802    -0.31916287129204     0.00000000000000     0.00000000000000
    8     0.55459871347464     0.31916287129204    -0.23928684395493     0.00000000000000     0.00000000000000
    9     0.00000000000000     0.00000000000000     0.00000000000000    -0.15057590929945     0.00000000000000
   10     0.00000000000000     0.00000000000000     0.00000000000000     0.00000000000000    -0.15057590929945

                 6                   7                   8                   9                  10

    1    -0.81689824338523    -0.73994488614523     0.55459871347464     0.00000000000000     0.00000000000000
    2    -0.73994488614523    -0.78206068734802     0.31916287129204     0.00000000000000     0.00000000000000
    3    -0.55459871347464    -0.31916287129204    -0.23928684395493     0.00000000000000     0.00000000000000
    4     0.00000000000000     0.00000000000000     0.00000000000000    -0.15057590929945     0.00000000000000
    5     0.00000000000000     0.00000000000000     0.00000000000000     0.00000000000000    -0.15057590929945
    6    -1.05053850662625    -0.85824142082891     0.23854214439466     0.00000000000000     0.00000000000000
    7    -0.85824142082891    -0.84340812556924     0.18730269822997     0.00000000000000     0.00000000000000
    8     0.23854214439466     0.18730269822997     0.12224086148801     0.00000000000000     0.00000000000000
    9     0.00000000000000     0.00000000000000     0.00000000000000     0.34667971151025     0.00000000000000
   10     0.00000000000000     0.00000000000000     0.00000000000000     0.00000000000000     0.34667971151025




	There are 0 unique integrals

  ## Fock (Symmetry 0) ##
  Irrep: 1 Size: 10 x 10

                 1                   2                   3                   4                   5

    1    -0.12975605159544    -0.26426218665323     0.35179377364388     0.00000000000000     0.00000000000000
    2    -0.26426218665323    -0.35826155170989     0.16860777194992     0.00000000000000     0.00000000000000
    3     0.35179377364388     0.16860777194992     0.80385177258857     0.00000000000000     0.00000000000000
    4     0.00000000000000     0.00000000000000     0.00000000000000     0.50889983442518     0.00000000000000
    5     0.00000000000000     0.00000000000000     0.00000000000000     0.00000000000000     0.50889983442518
    6    -0.70627822852590    -0.17095828158815    -0.87827719775204     0.00000000000000     0.00000000000000
    7    -0.17095828158815    -0.15235138494081    -0.14482544865728     0.00000000000000     0.00000000000000
    8     0.87827719775204     0.14482544865728     0.25354166752876     0.00000000000000     0.00000000000000
    9     0.00000000000000     0.00000000000000     0.00000000000000    -0.37230995687713    -0.00000000000000
   10     0.00000000000000     0.00000000000000     0.00000000000000    -0.00000000000000    -0.37230995687713

                 6                   7                   8                   9                  10

    1    -0.70627822852590    -0.17095828158816     0.87827719775204     0.00000000000000     0.00000000000000
    2    -0.17095828158815    -0.15235138494081     0.14482544865728     0.00000000000000     0.00000000000000
    3    -0.87827719775204    -0.14482544865728     0.25354166752876     0.00000000000000     0.00000000000000
    4     0.00000000000000     0.00000000000000     0.00000000000000    -0.37230995687713    -0.00000000000000
    5     0.00000000000000     0.00000000000000     0.00000000000000    -0.00000000000000    -0.37230995687713
    6    -0.12975605159544    -0.26426218665323    -0.35179377364388     0.00000000000000     0.00000000000000
    7    -0.26426218665323    -0.35826155170989    -0.16860777194992     0.00000000000000     0.00000000000000
    8    -0.35179377364388    -0.16860777194992     0.80385177258857     0.00000000000000     0.00000000000000
    9     0.00000000000000     0.00000000000000     0.00000000000000     0.50889983442518     0.00000000000000
   10     0.00000000000000     0.00000000000000     0.00000000000000     0.00000000000000     0.50889983442518



  ## C (Symmetry 0) ##
  Irrep: 1 Size: 10 x 10

                 1                   2                   3                   4                   5

    1     1.19142674107298     0.17888756146647     0.68152036893865     0.04053055161852    -0.18096876550950
    2     0.48649954045117     0.68585602946693    -0.09926619590260     0.05491916576696    -0.01796873408857
    3     0.90139644500837    -0.63577670442344     0.43035284559192    -0.13070994567869    -0.18469381216925
    4    -0.36625549255573     0.63164377924634     0.23068900745859     0.00000000000000     0.17558989655131
    5     0.11007803279094     0.01413289287645     0.13606946684220    -0.23415980346481     0.72904290291545
    6    -0.88614947996855     0.23544493007698    -0.01532745918097     0.93289575238095     0.43941648294879
    7    -0.07822181695453    -0.60909656185851    -1.00578372107908    -0.44118602987779    -0.08748074452513
    8     0.70361613226417    -0.00068580252469     0.36616936063596     0.70028308592065    -0.13308539974991
    9     0.08398679214097    -0.14484352009172    -0.05289976563473     0.00000000000000    -0.76572473373273
   10    -0.48003600437245    -0.06163171029335    -0.59338127257482     0.05369566092822    -0.16717831129780

                 6                   7                   8                   9                  10

    1     1.54328561832141     0.49901400856239    -0.36362211582487    -1.16740196329445    -0.18096876550950
    2    -1.39865132592327    -1.02928230613956    -1.60393416659169    -0.16680837875578    -0.01796873408857
    3     0.69375254901250    -0.82469421364229    -0.61795542172423    -1.01935689740892    -0.18469381216925
    4     0.36625549255573    -0.63164377924634     0.23068900745860    -0.00000000000000    -0.17558989655131
    5    -0.11007803279094    -0.01413289287645     0.13606946684220    -0.23415980346481     0.72904290291545
    6    -0.81387690574322     0.30119959453269     0.08062444777463     1.80329947479035     0.43941648294879
    7     0.94580816545150     0.32258116800555     1.93097664242511    -0.10354637076577    -0.08748074452513
    8     0.56725664382201    -0.12474769604340    -0.48936773923093    -1.52899035961732    -0.13308539974991
    9    -0.08398679214097     0.14484352009172    -0.05289976563473    -0.00000000000000     0.76572473373273
   10     0.48003600437245     0.06163171029335    -0.59338127257482     0.05369566092822    -0.16717831129780




 In Bisection function HOMO = -1.242  LUMO =  2.085

 0.42169 = (-1.24167 + 2.08506)/2.0
 sum -  nocc_ = 5.00000000
 On Iteration in Bisection 0
 a: 5.00000  b:-0.50000

 -0.40999 = (-1.24167 + 0.42169)/2.0
 sum -  nocc_ = 1.00000000
 On Iteration in Bisection 1
 a: 1.00000  b:-0.50000

 -0.82583 = (-1.24167 + -0.40999)/2.0
 sum -  nocc_ = 0.00000000
 ef = -0.82583 sum = 1.00000 

 Iter: 0  T:      100.000  val:-0.825830  sumni 0.00000
 ne = 1.0000

Nuc Replusion =       0.661471510737
 1st iteration =       0.049331348695
 In Bisection function HOMO = -0.303  LUMO =  3.169

 1.43291 = (-0.30298 + 3.16879)/2.0
 sum -  nocc_ = 5.00000000
 On Iteration in Bisection 0
 a: 5.00000  b:-0.50000

 0.56496 = (-0.30298 + 1.43291)/2.0
 sum -  nocc_ = 2.00000000
 On Iteration in Bisection 1
 a: 2.00000  b:-0.50000

 0.13099 = (-0.30298 + 0.56496)/2.0
 sum -  nocc_ = 0.00000000
 ef = 0.13099 sum = 1.00000 

 Iter: 0  T:      100.000  val:0.130994  sumni 0.00000
 ne = 1.0000

 iter:1  failiter:1  energy:     -1.466634346164  total:     -0.805162835427  error:     -0.339633625504
 In Bisection function HOMO = -0.595  LUMO =  3.242

 1.32395 = (-0.59455 + 3.24246)/2.0
 sum -  nocc_ = 5.00000000
 On Iteration in Bisection 0
 a: 5.00000  b:-0.50000

 0.36470 = (-0.59455 + 1.32395)/2.0
 sum -  nocc_ = 1.00000000
 On Iteration in Bisection 1
 a: 1.00000  b:-0.50000

 -0.11492 = (-0.59455 + 0.36470)/2.0
 sum -  nocc_ = 0.00000000
 ef = -0.11492 sum = 1.00000 

 Iter: 1  T:      100.000  val:-0.114923  sumni 0.00000
 ne = 1.0000

 iter:2  failiter:2  energy:     -1.802779001691  total:     -1.141307490954  error:     -0.336144655527
 In Bisection function HOMO = -0.579  LUMO =  3.285

 1.35285 = (-0.57945 + 3.28516)/2.0
 sum -  nocc_ = 5.00000000
 On Iteration in Bisection 0
 a: 5.00000  b:-0.50000

 0.38670 = (-0.57945 + 1.35285)/2.0
 sum -  nocc_ = 1.00000000
 On Iteration in Bisection 1
 a: 1.00000  b:-0.50000

 -0.09638 = (-0.57945 + 0.38670)/2.0
 sum -  nocc_ = 0.00000000
 ef = -0.09638 sum = 1.00000 

 Iter: 2  T:      100.000  val:-0.096375  sumni 0.00000
 ne = 1.0000

 iter:3  failiter:3  energy:     -1.792095648683  total:     -1.130624137945  error:      0.010683353008
 In Bisection function HOMO = -0.576  LUMO =  3.293

 1.35842 = (-0.57580 + 3.29265)/2.0
 sum -  nocc_ = 5.00000000
 On Iteration in Bisection 0
 a: 5.00000  b:-0.50000

 0.39131 = (-0.57580 + 1.35842)/2.0
 sum -  nocc_ = 1.00000000
 On Iteration in Bisection 1
 a: 1.00000  b:-0.50000

 -0.09225 = (-0.57580 + 0.39131)/2.0
 sum -  nocc_ = 0.00000000
 ef = -0.09225 sum = 1.00000 

 Iter: 3  T:      100.000  val:-0.092246  sumni 0.00000
 ne = 1.0000

 iter:4  failiter:4  energy:     -1.789171890761  total:     -1.127700380023  error:      0.002923757922
 In Bisection function HOMO = -0.575  LUMO =  3.294

 1.35947 = (-0.57510 + 3.29405)/2.0
 sum -  nocc_ = 5.00000000
 On Iteration in Bisection 0
 a: 5.00000  b:-0.50000

 0.39219 = (-0.57510 + 1.35947)/2.0
 sum -  nocc_ = 1.00000000
 On Iteration in Bisection 1
 a: 1.00000  b:-0.50000

 -0.09146 = (-0.57510 + 0.39219)/2.0
 sum -  nocc_ = 0.00000000
 ef = -0.09146 sum = 1.00000 

 Iter: 4  T:      100.000  val:-0.091458  sumni 0.00000
 ne = 1.0000

 iter:5  failiter:5  energy:     -1.788605992435  total:     -1.127134481697  error:      0.000565898326
 In Bisection function HOMO = -0.575  LUMO =  3.294

 1.35967 = (-0.57497 + 3.29432)/2.0
 sum -  nocc_ = 5.00000000
 On Iteration in Bisection 0
 a: 5.00000  b:-0.50000

 0.39235 = (-0.57497 + 1.35967)/2.0
 sum -  nocc_ = 1.00000000
 On Iteration in Bisection 1
 a: 1.00000  b:-0.50000

 -0.09131 = (-0.57497 + 0.39235)/2.0
 sum -  nocc_ = 0.00000000
 ef = -0.09131 sum = 1.00000 

 Iter: 5  T:      100.000  val:-0.091308  sumni 0.00000
 ne = 1.0000

 iter:6  failiter:6  energy:     -1.788497970170  total:     -1.127026459433  error:      0.000108022264
 In Bisection function HOMO = -0.575  LUMO =  3.294

 1.35971 = (-0.57494 + 3.29437)/2.0
 sum -  nocc_ = 5.00000000
 On Iteration in Bisection 0
 a: 5.00000  b:-0.50000

 0.39239 = (-0.57494 + 1.35971)/2.0
 sum -  nocc_ = 1.00000000
 On Iteration in Bisection 1
 a: 1.00000  b:-0.50000

 -0.09128 = (-0.57494 + 0.39239)/2.0
 sum -  nocc_ = 0.00000000
 ef = -0.09128 sum = 1.00000 

 Iter: 6  T:      100.000  val:-0.091279  sumni 0.00000
 ne = 1.0000

 iter:7  failiter:7  energy:     -1.788477212909  total:     -1.127005702171  error:      0.000020757261
 In Bisection function HOMO = -0.575  LUMO =  3.294

 1.35972 = (-0.57494 + 3.29438)/2.0
 sum -  nocc_ = 5.00000000
 On Iteration in Bisection 0
 a: 5.00000  b:-0.50000

 0.39239 = (-0.57494 + 1.35972)/2.0
 sum -  nocc_ = 1.00000000
 On Iteration in Bisection 1
 a: 1.00000  b:-0.50000

 -0.09127 = (-0.57494 + 0.39239)/2.0
 sum -  nocc_ = 0.00000000
 ef = -0.09127 sum = 1.00000 

 Iter: 7  T:      100.000  val:-0.091273  sumni 0.00000
 ne = 1.0000

 iter:8  failiter:8  energy:     -1.788473199611  total:     -1.127001688873  error:      0.000004013298
 In Bisection function HOMO = -0.575  LUMO =  3.294

 1.35972 = (-0.57494 + 3.29438)/2.0
 sum -  nocc_ = 5.00000000
 On Iteration in Bisection 0
 a: 5.00000  b:-0.50000

 0.39239 = (-0.57494 + 1.35972)/2.0
 sum -  nocc_ = 1.00000000
 On Iteration in Bisection 1
 a: 1.00000  b:-0.50000

 -0.09127 = (-0.57494 + 0.39239)/2.0
 sum -  nocc_ = 0.00000000
 ef = -0.09127 sum = 1.00000 

 Iter: 8  T:      100.000  val:-0.091272  sumni 0.00000
 ne = 1.0000

 iter:9  failiter:9  energy:     -1.788472420152  total:     -1.127000909414  error:      0.000000779459
 In Bisection function HOMO = -0.575  LUMO =  3.294

 1.35972 = (-0.57494 + 3.29438)/2.0
 sum -  nocc_ = 5.00000000
 On Iteration in Bisection 0
 a: 5.00000  b:-0.50000

 0.39239 = (-0.57494 + 1.35972)/2.0
 sum -  nocc_ = 1.00000000
 On Iteration in Bisection 1
 a: 1.00000  b:-0.50000

 -0.09127 = (-0.57494 + 0.39239)/2.0
 sum -  nocc_ = 0.00000000
 ef = -0.09127 sum = 1.00000 

 Iter: 9  T:      100.000  val:-0.091272  sumni 0.00000
 ne = 1.0000

 iter:10  failiter:10  energy:     -1.788472268275  total:     -1.127000757538  error:      0.000000151877
 In Bisection function HOMO = -0.575  LUMO =  3.294

 1.35972 = (-0.57494 + 3.29438)/2.0
 sum -  nocc_ = 5.00000000
 On Iteration in Bisection 0
 a: 5.00000  b:-0.50000

 0.39239 = (-0.57494 + 1.35972)/2.0
 sum -  nocc_ = 1.00000000
 On Iteration in Bisection 1
 a: 1.00000  b:-0.50000

 -0.09127 = (-0.57494 + 0.39239)/2.0
 sum -  nocc_ = 0.00000000
 ef = -0.09127 sum = 1.00000 

 Iter: 10  T:      100.000  val:-0.091272  sumni 0.00000
 ne = 1.0000

 iter:11  failiter:11  energy:     -1.788472238614  total:     -1.127000727876  error:      0.000000029662
 In Bisection function HOMO = -0.575  LUMO =  3.294

 1.35972 = (-0.57494 + 3.29438)/2.0
 sum -  nocc_ = 5.00000000
 On Iteration in Bisection 0
 a: 5.00000  b:-0.50000

 0.39239 = (-0.57494 + 1.35972)/2.0
 sum -  nocc_ = 1.00000000
 On Iteration in Bisection 1
 a: 1.00000  b:-0.50000

 -0.09127 = (-0.57494 + 0.39239)/2.0
 sum -  nocc_ = 0.00000000
 ef = -0.09127 sum = 1.00000 

 Iter: 11  T:      100.000  val:-0.091272  sumni 0.00000
 ne = 1.0000

 iter:12  failiter:12  energy:     -1.788472232811  total:     -1.127000722074  error:      0.000000005803
 In Bisection function HOMO = -0.575  LUMO =  3.294

 1.35972 = (-0.57494 + 3.29438)/2.0
 sum -  nocc_ = 5.00000000
 On Iteration in Bisection 0
 a: 5.00000  b:-0.50000

 0.39239 = (-0.57494 + 1.35972)/2.0
 sum -  nocc_ = 1.00000000
 On Iteration in Bisection 1
 a: 1.00000  b:-0.50000

 -0.09127 = (-0.57494 + 0.39239)/2.0
 sum -  nocc_ = 0.00000000
 ef = -0.09127 sum = 1.00000 

 Iter: 12  T:      100.000  val:-0.091272  sumni 0.00000
 ne = 1.0000

 iter:13  failiter:13  energy:     -1.788472231675  total:     -1.127000720937  error:      0.000000001136
 In Bisection function HOMO = -0.575  LUMO =  3.294

 1.35972 = (-0.57494 + 3.29438)/2.0
 sum -  nocc_ = 5.00000000
 On Iteration in Bisection 0
 a: 5.00000  b:-0.50000

 0.39239 = (-0.57494 + 1.35972)/2.0
 sum -  nocc_ = 1.00000000
 On Iteration in Bisection 1
 a: 1.00000  b:-0.50000

 -0.09127 = (-0.57494 + 0.39239)/2.0
 sum -  nocc_ = 0.00000000
 ef = -0.09127 sum = 1.00000 

 Iter: 13  T:      100.000  val:-0.091272  sumni 0.00000
 ne = 1.0000

 iter:14  failiter:14  energy:     -1.788472231452  total:     -1.127000720714  error:      0.000000000223
 In Bisection function HOMO = -0.575  LUMO =  3.294

 1.35972 = (-0.57494 + 3.29438)/2.0
 sum -  nocc_ = 5.00000000
 On Iteration in Bisection 0
 a: 5.00000  b:-0.50000

 0.39239 = (-0.57494 + 1.35972)/2.0
 sum -  nocc_ = 1.00000000
 On Iteration in Bisection 1
 a: 1.00000  b:-0.50000

 -0.09127 = (-0.57494 + 0.39239)/2.0
 sum -  nocc_ = 0.00000000
 ef = -0.09127 sum = 1.00000 

 Iter: 14  T:      100.000  val:-0.091272  sumni 0.00000
 ne = 1.0000

 iter:15  failiter:15  energy:     -1.788472231408  total:     -1.127000720671  error:      0.000000000044
 In Bisection function HOMO = -0.575  LUMO =  3.294

 1.35972 = (-0.57494 + 3.29438)/2.0
 sum -  nocc_ = 5.00000000
 On Iteration in Bisection 0
 a: 5.00000  b:-0.50000

 0.39239 = (-0.57494 + 1.35972)/2.0
 sum -  nocc_ = 1.00000000
 On Iteration in Bisection 1
 a: 1.00000  b:-0.50000

 -0.09127 = (-0.57494 + 0.39239)/2.0
 sum -  nocc_ = 0.00000000
 ef = -0.09127 sum = 1.00000 

 Iter: 15  T:      100.000  val:-0.091272  sumni 0.00000
 ne = 1.0000

 iter:16  failiter:16  energy:     -1.788472231400  total:     -1.127000720662  error:      0.000000000009
 In Bisection function HOMO = -0.575  LUMO =  3.294

 1.35972 = (-0.57494 + 3.29438)/2.0
 sum -  nocc_ = 5.00000000
 On Iteration in Bisection 0
 a: 5.00000  b:-0.50000

 0.39239 = (-0.57494 + 1.35972)/2.0
 sum -  nocc_ = 1.00000000
 On Iteration in Bisection 1
 a: 1.00000  b:-0.50000

 -0.09127 = (-0.57494 + 0.39239)/2.0
 sum -  nocc_ = 0.00000000
 ef = -0.09127 sum = 1.00000 

 Iter: 16  T:      100.000  val:-0.091272  sumni 0.00000
 ne = 1.0000

 iter:17  failiter:17  energy:     -1.788472231398  total:     -1.127000720660  error:      0.000000000002
 In Bisection function HOMO = -0.575  LUMO =  3.294

 1.35972 = (-0.57494 + 3.29438)/2.0
 sum -  nocc_ = 5.00000000
 On Iteration in Bisection 0
 a: 5.00000  b:-0.50000

 0.39239 = (-0.57494 + 1.35972)/2.0
 sum -  nocc_ = 1.00000000
 On Iteration in Bisection 1
 a: 1.00000  b:-0.50000

 -0.09127 = (-0.57494 + 0.39239)/2.0
 sum -  nocc_ = 0.00000000
 ef = -0.09127 sum = 1.00000 

 Iter: 17  T:      100.000  val:-0.091272  sumni 0.00000
 ne = 1.0000

 iter:18  failiter:18  energy:     -1.788472231398  total:     -1.127000720660  error:      0.000000000000
 FTHFEnergy =    -1.127001
 FD_dis[0] = 1.00000000 with -0.574937 eig value
 FD_dis[1] = 0.00000000 with 0.185669 eig value
 FD_dis[2] = 0.00000000 with 0.493653 eig value
 FD_dis[3] = 0.00000000 with 0.896952 eig value
 FD_dis[4] = 0.00000000 with 1.287321 eig value
 FD_dis[5] = 0.00000000 with 1.287321 eig value
 FD_dis[6] = 0.00000000 with 1.897001 eig value
 FD_dis[7] = 0.00000000 with 2.002822 eig value
 FD_dis[8] = 0.00000000 with 2.002822 eig value
 FD_dis[9] = 0.00000000 with 3.294382 eig value
*** PSI4 exiting successfully. Buy a developer a beer!
