    -----------------------------------------------------------------------
          PSI4: An Open-Source Ab Initio Electronic Structure Package
                              PSI 4.0 Driver

               Git: Rev {master} 556e8139d3cfa1f96ccffe2cdf22cc56a185d2b2

    J. M. Turney, A. C. Simmonett, R. M. Parrish, E. G. Hohenstein,
    F. A. Evangelista, J. T. Fermann, B. J. Mintz, L. A. Burns, J. J. Wilke,
    M. L. Abrams, N. J. Russ, M. L. Leininger, C. L. Janssen, E. T. Seidl,
    W. D. Allen, H. F. Schaefer, R. A. King, E. F. Valeev, C. D. Sherrill,
    and T. D. Crawford, WIREs Comput. Mol. Sci. 2, 556-565 (2012)
    (doi: 10.1002/wcms.93)

                         Additional Contributions by
    A. E. DePrince, M. Saitow, U. Bozkaya, A. Yu. Sokolov
    -----------------------------------------------------------------------

    Process ID:  14580
    PSI4DATADIR: /Users/kevinhannon/Programs/psi4cmake/psi4/lib
    Memory level set to 256.000 MB

  ==> Input File <==

--------------------------------------------------------------------------

# PYTHONPATH must include directory above plugin directory.
#     Define either externally or here, then import plugin.
sys.path.insert(0, '/Users/kevinhannon/Programs/Quantum_Programs/Quantum-Programs/GS/')
import scf

molecule {
0 1
H
H 1 2.90000
symmetry c1
units angstrom
}


set {
  basis cc-pvdz
  reference rhf
  scf_type  pk
}

set scf {
  DO_FTHF true
  MAX_ITER 130
  MAX_TEMP 20000
  TEMP_INCREMENT 0
  bisect  true
  bisect_iter  40
}
energy('rhf')
energy('scf')


--------------------------------------------------------------------------

*** tstart() called on Kevins-MacBook-Pro.local
*** at Sun Apr 12 15:46:09 2015

/Users/kevinhannon/Programs/Quantum_Programs/Quantum-Programs/GS/scf/scf.so loaded.

*** tstart() called on Kevins-MacBook-Pro.local
*** at Sun Apr 12 15:46:09 2015


         ---------------------------------------------------------
                                   SCF
            by Justin Turney, Rob Parrish, and Andy Simmonett
                              RHF Reference
                        1 Threads,    256 MiB Core
         ---------------------------------------------------------

  ==> Geometry <==

    Molecular point group: c1
    Full point group: D_inf_h

    Geometry (in Angstrom), charge = 0, multiplicity = 1:

       Center              X                  Y                   Z       
    ------------   -----------------  -----------------  -----------------
           H          0.000000000000     0.000000000000    -1.450000000000
           H          0.000000000000     0.000000000000     1.450000000000

  Running in c1 symmetry.

  Rotational constants: A = ************  B =      3.97782  C =      3.97782 [cm^-1]
  Rotational constants: A = ************  B = 119252.10529  C = 119252.10529 [MHz]
  Nuclear repulsion =    0.182474899513793

  Charge       = 0
  Multiplicity = 1
  Electrons    = 2
  Nalpha       = 1
  Nbeta        = 1

  ==> Algorithm <==

  SCF Algorithm Type is PK.
  DIIS enabled.
  MOM disabled.
  Fractional occupation disabled.
  Guess Type is CORE.
  Energy threshold   = 1.00e-06
  Density threshold  = 1.00e-06
  Integral threshold = 0.00e+00

  ==> Primary Basis <==

  Basis Set: CC-PVDZ
    Number of shells: 6
    Number of basis function: 10
    Number of Cartesian functions: 10
    Spherical Harmonics?: true
    Max angular momentum: 1

  ==> Pre-Iterations <==

   -------------------------------------------------------
    Irrep   Nso     Nmo     Nalpha   Nbeta   Ndocc  Nsocc
   -------------------------------------------------------
     A         10      10       0       0       0       0
   -------------------------------------------------------
    Total      10      10       1       1       1       0
   -------------------------------------------------------

  Starting with a DF guess...

 OEINTS: Overlap, kinetic, potential, dipole, and quadrupole integrals
         stored in file 35.

  ==> Integral Setup <==

  ==> DFJK: Density-Fitted J/K Matrices <==

    J tasked:                  Yes
    K tasked:                  Yes
    wK tasked:                  No
    OpenMP threads:              1
    Integrals threads:           1
    Memory (MB):               183
    Algorithm:                Core
    Integral Cache:           NONE
    Schwarz Cutoff:          1E-12
    Fitting Condition:       1E-12

   => Auxiliary Basis Set <=

  Basis Set: 
    Number of shells: 18
    Number of basis function: 46
    Number of Cartesian functions: 50
    Spherical Harmonics?: true
    Max angular momentum: 2

  Minimum eigenvalue in the overlap matrix is 2.6562398942E-01.
  Using Symmetric Orthogonalization.
  SCF Guess: Core (One-Electron) Hamiltonian.

  ==> Iterations <==

                           Total Energy        Delta E     RMS |[F,P]|

   @DF-RHF iter   1:    -0.81342647231789   -8.13426e-01   1.24473e-02 
   @DF-RHF iter   2:    -0.83255892292154   -1.91325e-02   2.09687e-03 DIIS
   @DF-RHF iter   3:    -0.83312046234033   -5.61539e-04   1.87246e-05 DIIS
   @DF-RHF iter   4:    -0.83312049333123   -3.09909e-08   6.95697e-07 DIIS

  DF guess converged.

  ==> Integral Setup <==

 MINTS: Wrapper to libmints.
   by Justin Turney

   Calculation information:
      Number of atoms:                   2
      Number of AO shells:               6
      Number of SO shells:               6
      Number of primitives:             10
      Number of atomic orbitals:        10
      Number of basis functions:        10

      Number of irreps:                  1
      Integral cutoff                 0.00e+00
      Number of functions per irrep: [  10 ]

 OEINTS: Overlap, kinetic, potential, dipole, and quadrupole integrals
         stored in file 35.

      Computing two-electron integrals...done
      Computed 512 non-zero two-electron integrals.
        Stored in file 33.

	Batch   1 pq = [       0,      55] index = [             0,1540]
  ==> DiskJK: Disk-Based J/K Matrices <==

    J tasked:                  Yes
    K tasked:                  Yes
    wK tasked:                  No
    Memory (MB):               183
    Schwarz Cutoff:          1E-12

   @RHF iter   5:    -0.83308636470992    3.41286e-05   8.83810e-06 DIIS
   @RHF iter   6:    -0.83308637378660   -9.07668e-09   1.46892e-06 DIIS
   @RHF iter   7:    -0.83308637405387   -2.67263e-10   2.19876e-08 DIIS

  ==> Post-Iterations <==

    Orbital Energies (a.u.)
    -----------------------

    Doubly Occupied:                                                      

       1A     -0.327871  

    Virtual:                                                              

       2A     -0.110594     3A      0.598521     4A      0.677956  
       5A      1.461949     6A      1.461949     7A      1.464249  
       8A      1.464855     9A      1.464855    10A      1.480039  

    Final Occupation by Irrep:
              A 
    DOCC [     1 ]

  Energy converged.

  @RHF Final Energy:    -0.83308637405387

   => Energetics <=

    Nuclear Repulsion Energy =              0.1824748995137931
    One-Electron Energy =                  -1.3753808095844648
    Two-Electron Energy =                   0.3598195360168056
    DFT Exchange-Correlation Energy =       0.0000000000000000
    Empirical Dispersion Energy =           0.0000000000000000
    PCM Polarization Energy =               0.0000000000000000
    EFP Energy =                            0.0000000000000000
    Total Energy =                         -0.8330863740538662

    Alert: EFP and PCM quantities not currently incorporated into SCF psivars.

Properties will be evaluated at   0.000000,   0.000000,   0.000000 Bohr
  ==> Properties <==


Properties computed using the SCF density matrix

  Nuclear Dipole Moment: (a.u.)
     X:     0.0000      Y:     0.0000      Z:     0.0000

  Electronic Dipole Moment: (a.u.)
     X:    -0.0000      Y:     0.0000      Z:     0.0000

  Dipole Moment: (a.u.)
     X:    -0.0000      Y:     0.0000      Z:     0.0000     Total:     0.0000

  Dipole Moment: (Debye)
     X:    -0.0000      Y:     0.0000      Z:     0.0000     Total:     0.0000


  Saving occupied orbitals to File 180.

*** tstop() called on Kevins-MacBook-Pro.local at Sun Apr 12 15:46:09 2015
Module time:
	user time   =       0.19 seconds =       0.00 minutes
	system time =       0.01 seconds =       0.00 minutes
	total time  =          0 seconds =       0.00 minutes
Total time:
	user time   =       0.21 seconds =       0.00 minutes
	system time =       0.02 seconds =       0.00 minutes
	total time  =          0 seconds =       0.00 minutes

*** tstart() called on Kevins-MacBook-Pro.local
*** at Sun Apr 12 15:46:09 2015


         ---------------------------------------------------------
                                   SCF
            by Justin Turney, Rob Parrish, and Andy Simmonett
                              RHF Reference
                        1 Threads,    256 MiB Core
         ---------------------------------------------------------

  ==> Geometry <==

    Molecular point group: c1
    Full point group: D_inf_h

    Geometry (in Angstrom), charge = 0, multiplicity = 1:

       Center              X                  Y                   Z       
    ------------   -----------------  -----------------  -----------------
           H          0.000000000000     0.000000000000    -1.450000000000
           H          0.000000000000     0.000000000000     1.450000000000

  Running in c1 symmetry.

  Rotational constants: A = ************  B =      3.97782  C =      3.97782 [cm^-1]
  Rotational constants: A = ************  B = 119252.10529  C = 119252.10529 [MHz]
  Nuclear repulsion =    0.182474899513793

  Charge       = 0
  Multiplicity = 1
  Electrons    = 2
  Nalpha       = 1
  Nbeta        = 1

  ==> Algorithm <==

  SCF Algorithm Type is PK.
  DIIS enabled.
  MOM disabled.
  Fractional occupation disabled.
  Guess Type is CORE.
  Energy threshold   = 1.00e-08
  Density threshold  = 1.00e-08
  Integral threshold = 0.00e+00

  ==> Primary Basis <==

  Basis Set: CC-PVDZ
    Number of shells: 6
    Number of basis function: 10
    Number of Cartesian functions: 10
    Spherical Harmonics?: true
    Max angular momentum: 1

  ==> Pre-Iterations <==

   -------------------------------------------------------
    Irrep   Nso     Nmo     Nalpha   Nbeta   Ndocc  Nsocc
   -------------------------------------------------------
     A         10      10       0       0       0       0
   -------------------------------------------------------
    Total      10      10       1       1       1       0
   -------------------------------------------------------

  Starting with a DF guess...

 OEINTS: Overlap, kinetic, potential, dipole, and quadrupole integrals
         stored in file 35.

  ==> Integral Setup <==

  ==> DFJK: Density-Fitted J/K Matrices <==

    J tasked:                  Yes
    K tasked:                  Yes
    wK tasked:                  No
    OpenMP threads:              1
    Integrals threads:           1
    Memory (MB):               183
    Algorithm:                Core
    Integral Cache:           NONE
    Schwarz Cutoff:          1E-12
    Fitting Condition:       1E-12

   => Auxiliary Basis Set <=

  Basis Set: 
    Number of shells: 18
    Number of basis function: 46
    Number of Cartesian functions: 50
    Spherical Harmonics?: true
    Max angular momentum: 2

  Minimum eigenvalue in the overlap matrix is 2.6562398942E-01.
  Using Symmetric Orthogonalization.
  SCF Guess: Core (One-Electron) Hamiltonian.

  ==> Iterations <==

                           Total Energy        Delta E     RMS |[F,P]|

   @DF-RHF iter   1:    -0.81342647231789   -8.13426e-01   1.24473e-02 
   @DF-RHF iter   2:    -0.83255892292153   -1.91325e-02   2.09687e-03 DIIS
   @DF-RHF iter   3:    -0.83312046234033   -5.61539e-04   1.87246e-05 DIIS
   @DF-RHF iter   4:    -0.83312049333123   -3.09909e-08   6.95697e-07 DIIS
   @DF-RHF iter   5:    -0.83312049337174   -4.05029e-11   1.75089e-10 DIIS

  DF guess converged.

  ==> Integral Setup <==

 MINTS: Wrapper to libmints.
   by Justin Turney

   Calculation information:
      Number of atoms:                   2
      Number of AO shells:               6
      Number of SO shells:               6
      Number of primitives:             10
      Number of atomic orbitals:        10
      Number of basis functions:        10

      Number of irreps:                  1
      Integral cutoff                 0.00e+00
      Number of functions per irrep: [  10 ]

 OEINTS: Overlap, kinetic, potential, dipole, and quadrupole integrals
         stored in file 35.

      Computing two-electron integrals...done
      Computed 512 non-zero two-electron integrals.
        Stored in file 33.

	Batch   1 pq = [       0,      55] index = [             0,1540]
  ==> DiskJK: Disk-Based J/K Matrices <==

    J tasked:                  Yes
    K tasked:                  Yes
    wK tasked:                  No
    Memory (MB):               183
    Schwarz Cutoff:          1E-12

   @RHF iter   6:    -0.83308636471029    3.41287e-05   8.83792e-06 DIIS
   @RHF iter   7:    -0.83308637378661   -9.07633e-09   1.46889e-06 DIIS
   @RHF iter   8:    -0.83308637405387   -2.67253e-10   2.19871e-08 DIIS
   @RHF iter   9:    -0.83308637405391   -4.08562e-14   4.83715e-13 DIIS

  ==> Post-Iterations <==

    Orbital Energies (a.u.)
    -----------------------

    Doubly Occupied:                                                      

       1A     -0.327871  

    Virtual:                                                              

       2A     -0.110594     3A      0.598521     4A      0.677956  
       5A      1.461949     6A      1.461949     7A      1.464249  
       8A      1.464855     9A      1.464855    10A      1.480039  

    Final Occupation by Irrep:
              A 
    DOCC [     1 ]

  Energy converged.

  @RHF Final Energy:    -0.83308637405391

   => Energetics <=

    Nuclear Repulsion Energy =              0.1824748995137931
    One-Electron Energy =                  -1.3753808343961560
    Two-Electron Energy =                   0.3598195608284556
    DFT Exchange-Correlation Energy =       0.0000000000000000
    Empirical Dispersion Energy =           0.0000000000000000
    PCM Polarization Energy =               0.0000000000000000
    EFP Energy =                            0.0000000000000000
    Total Energy =                         -0.8330863740539074

    Alert: EFP and PCM quantities not currently incorporated into SCF psivars.

Properties will be evaluated at   0.000000,   0.000000,   0.000000 Bohr
  ==> Properties <==


Properties computed using the SCF density matrix

  Nuclear Dipole Moment: (a.u.)
     X:     0.0000      Y:     0.0000      Z:     0.0000

  Electronic Dipole Moment: (a.u.)
     X:    -0.0000      Y:     0.0000      Z:     0.0000

  Dipole Moment: (a.u.)
     X:    -0.0000      Y:     0.0000      Z:     0.0000     Total:     0.0000

  Dipole Moment: (Debye)
     X:    -0.0000      Y:     0.0000      Z:     0.0000     Total:     0.0000


  Saving occupied orbitals to File 180.

*** tstop() called on Kevins-MacBook-Pro.local at Sun Apr 12 15:46:09 2015
Module time:
	user time   =       0.20 seconds =       0.00 minutes
	system time =       0.01 seconds =       0.00 minutes
	total time  =          0 seconds =       0.00 minutes
Total time:
	user time   =       0.42 seconds =       0.01 minutes
	system time =       0.03 seconds =       0.00 minutes
	total time  =          0 seconds =       0.00 minutes
Reading options from the SCF block
Calling plugin scf.so.
    Molecular point group: c1
    Full point group: D_inf_h

    Geometry (in Angstrom), charge = 0, multiplicity = 1:

       Center              X                  Y                   Z       
    ------------   -----------------  -----------------  -----------------
           H          0.000000000000     0.000000000000    -1.450000000000
           H          0.000000000000     0.000000000000     1.450000000000


    Nuclear repulsion energy:       0.18247490

  ## Overlap (Symmetry 0) ##
  Irrep: 1 Size: 10 x 10

                 1                   2                   3                   4                   5

    1     1.00000000000000     0.68486025149275    -0.00000000000000     0.00000000000000     0.00000000000000
    2     0.68486025149275     1.00000000000000     0.00000000000000     0.00000000000000     0.00000000000000
    3    -0.00000000000000     0.00000000000000     1.00000000000000     0.00000000000000     0.00000000000000
    4     0.00000000000000     0.00000000000000     0.00000000000000     1.00000000000000     0.00000000000000
    5     0.00000000000000     0.00000000000000     0.00000000000000     0.00000000000000     1.00000000000000
    6     0.00083946234746     0.03668859299812     0.00069582697859     0.00000000000000     0.00000000000000
    7     0.03668859299812     0.16009434481240     0.03424224525498     0.00000000000000     0.00000000000000
    8    -0.00069582697859    -0.03424224525498    -0.00037812094863     0.00000000000000     0.00000000000000
    9     0.00000000000000     0.00000000000000     0.00000000000000     0.00001814945081     0.00000000000000
   10     0.00000000000000     0.00000000000000     0.00000000000000     0.00000000000000     0.00001814945081

                 6                   7                   8                   9                  10

    1     0.00083946234746     0.03668859299812    -0.00069582697859     0.00000000000000     0.00000000000000
    2     0.03668859299812     0.16009434481240    -0.03424224525498     0.00000000000000     0.00000000000000
    3     0.00069582697859     0.03424224525498    -0.00037812094863     0.00000000000000     0.00000000000000
    4     0.00000000000000     0.00000000000000     0.00000000000000     0.00001814945081     0.00000000000000
    5     0.00000000000000     0.00000000000000     0.00000000000000     0.00000000000000     0.00001814945081
    6     1.00000000000000     0.68486025149275     0.00000000000000     0.00000000000000     0.00000000000000
    7     0.68486025149275     1.00000000000000    -0.00000000000000     0.00000000000000     0.00000000000000
    8     0.00000000000000    -0.00000000000000     1.00000000000000     0.00000000000000     0.00000000000000
    9     0.00000000000000     0.00000000000000     0.00000000000000     1.00000000000000     0.00000000000000
   10     0.00000000000000     0.00000000000000     0.00000000000000     0.00000000000000     1.00000000000000



  ## Kinetic (Symmetry 0) ##
  Irrep: 1 Size: 10 x 10

                 1                   2                   3                   4                   5

    1     0.96945722711242     0.20123413106538    -0.00000000000000     0.00000000000000     0.00000000000000
    2     0.20123413106538     0.18300000000000     0.00000000000000     0.00000000000000     0.00000000000000
    3    -0.00000000000000     0.00000000000000     1.81750000000000     0.00000000000000     0.00000000000000
    4     0.00000000000000     0.00000000000000     0.00000000000000     1.81750000000000     0.00000000000000
    5     0.00000000000000     0.00000000000000     0.00000000000000     0.00000000000000     1.81750000000000
    6    -0.00195415309931    -0.01012065861433    -0.00222303187568     0.00000000000000     0.00000000000000
    7    -0.01012065861433    -0.00648430474740    -0.00456081012606     0.00000000000000     0.00000000000000
    8     0.00222303187568     0.00456081012606     0.00202565795969     0.00000000000000     0.00000000000000
    9     0.00000000000000     0.00000000000000     0.00000000000000    -0.00011105766335     0.00000000000000
   10     0.00000000000000     0.00000000000000     0.00000000000000     0.00000000000000    -0.00011105766335

                 6                   7                   8                   9                  10

    1    -0.00195415309931    -0.01012065861433     0.00222303187568     0.00000000000000     0.00000000000000
    2    -0.01012065861433    -0.00648430474740     0.00456081012606     0.00000000000000     0.00000000000000
    3    -0.00222303187568    -0.00456081012606     0.00202565795969     0.00000000000000     0.00000000000000
    4     0.00000000000000     0.00000000000000     0.00000000000000    -0.00011105766335     0.00000000000000
    5     0.00000000000000     0.00000000000000     0.00000000000000     0.00000000000000    -0.00011105766335
    6     0.96945722711242     0.20123413106538     0.00000000000000     0.00000000000000     0.00000000000000
    7     0.20123413106538     0.18300000000000    -0.00000000000000     0.00000000000000     0.00000000000000
    8     0.00000000000000    -0.00000000000000     1.81750000000000     0.00000000000000     0.00000000000000
    9     0.00000000000000     0.00000000000000     0.00000000000000     1.81750000000000     0.00000000000000
   10     0.00000000000000     0.00000000000000     0.00000000000000     0.00000000000000     1.81750000000000



  ## Potential (Symmetry 0) ##
  Irrep: 1 Size: 10 x 10

                 1                   2                   3                   4                   5

    1    -1.56033668420304    -0.77467701065370    -0.02094802690932     0.00000000000000     0.00000000000000
    2    -0.77467701065370    -0.73982954720324    -0.01965033328605     0.00000000000000     0.00000000000000
    3    -0.02094802690932    -0.01965033328605    -1.09373449687015     0.00000000000000     0.00000000000000
    4     0.00000000000000     0.00000000000000     0.00000000000000    -1.08746639202759     0.00000000000000
    5     0.00000000000000     0.00000000000000     0.00000000000000     0.00000000000000    -1.08746639202759
    6    -0.00061488322464    -0.03531660799795    -0.00051866475766     0.00000000000000     0.00000000000000
    7    -0.03531660799795    -0.11035571998724    -0.02995160096245     0.00000000000000     0.00000000000000
    8     0.00051866475766     0.02995160096245     0.00027477702156     0.00000000000000     0.00000000000000
    9     0.00000000000000     0.00000000000000     0.00000000000000    -0.00001264054613     0.00000000000000
   10     0.00000000000000     0.00000000000000     0.00000000000000     0.00000000000000    -0.00001264054613

                 6                   7                   8                   9                  10

    1    -0.00061488322464    -0.03531660799795     0.00051866475766     0.00000000000000     0.00000000000000
    2    -0.03531660799795    -0.11035571998724     0.02995160096245     0.00000000000000     0.00000000000000
    3    -0.00051866475766    -0.02995160096245     0.00027477702156     0.00000000000000     0.00000000000000
    4     0.00000000000000     0.00000000000000     0.00000000000000    -0.00001264054613     0.00000000000000
    5     0.00000000000000     0.00000000000000     0.00000000000000     0.00000000000000    -0.00001264054613
    6    -1.56033668420304    -0.77467701065370     0.02094802690932     0.00000000000000     0.00000000000000
    7    -0.77467701065370    -0.73982954720324     0.01965033328605     0.00000000000000     0.00000000000000
    8     0.02094802690932     0.01965033328605    -1.09373449687015     0.00000000000000     0.00000000000000
    9     0.00000000000000     0.00000000000000     0.00000000000000    -1.08746639202759     0.00000000000000
   10     0.00000000000000     0.00000000000000     0.00000000000000     0.00000000000000    -1.08746639202759



  ## One Electron Ints (Symmetry 0) ##
  Irrep: 1 Size: 10 x 10

                 1                   2                   3                   4                   5

    1    -0.59087945709062    -0.57344287958831    -0.02094802690932     0.00000000000000     0.00000000000000
    2    -0.57344287958831    -0.55682954720324    -0.01965033328605     0.00000000000000     0.00000000000000
    3    -0.02094802690932    -0.01965033328605     0.72376550312985     0.00000000000000     0.00000000000000
    4     0.00000000000000     0.00000000000000     0.00000000000000     0.73003360797241     0.00000000000000
    5     0.00000000000000     0.00000000000000     0.00000000000000     0.00000000000000     0.73003360797241
    6    -0.00256903632394    -0.04543726661228    -0.00274169663334     0.00000000000000     0.00000000000000
    7    -0.04543726661228    -0.11684002473464    -0.03451241108851     0.00000000000000     0.00000000000000
    8     0.00274169663334     0.03451241108851     0.00230043498124     0.00000000000000     0.00000000000000
    9     0.00000000000000     0.00000000000000     0.00000000000000    -0.00012369820948     0.00000000000000
   10     0.00000000000000     0.00000000000000     0.00000000000000     0.00000000000000    -0.00012369820948

                 6                   7                   8                   9                  10

    1    -0.00256903632394    -0.04543726661228     0.00274169663334     0.00000000000000     0.00000000000000
    2    -0.04543726661228    -0.11684002473464     0.03451241108851     0.00000000000000     0.00000000000000
    3    -0.00274169663334    -0.03451241108851     0.00230043498124     0.00000000000000     0.00000000000000
    4     0.00000000000000     0.00000000000000     0.00000000000000    -0.00012369820948     0.00000000000000
    5     0.00000000000000     0.00000000000000     0.00000000000000     0.00000000000000    -0.00012369820948
    6    -0.59087945709062    -0.57344287958831     0.02094802690932     0.00000000000000     0.00000000000000
    7    -0.57344287958831    -0.55682954720324     0.01965033328605     0.00000000000000     0.00000000000000
    8     0.02094802690932     0.01965033328605     0.72376550312985     0.00000000000000     0.00000000000000
    9     0.00000000000000     0.00000000000000     0.00000000000000     0.73003360797241     0.00000000000000
   10     0.00000000000000     0.00000000000000     0.00000000000000     0.00000000000000     0.73003360797241




	There are 0 unique integrals

  ## Fock (Symmetry 0) ##
  Irrep: 1 Size: 10 x 10

                 1                   2                   3                   4                   5

    1    -0.36020946151609    -0.34785915055188    -0.02017906315759    -0.00000000000000     0.00000000000000
    2    -0.34785915055188    -0.30076696664783    -0.00616970526271     0.00000000000000     0.00000000000000
    3    -0.02017906315759    -0.00616970526271     0.72632662589210     0.00000000000000     0.00000000000000
    4    -0.00000000000000     0.00000000000000     0.00000000000000     0.73003361045794     0.00000000000000
    5     0.00000000000000     0.00000000000000     0.00000000000000     0.00000000000000     0.73003361045794
    6    -0.00516371995815     0.01815191746460     0.02881933444956     0.00000000000000     0.00000000000000
    7     0.01815191746460    -0.06467196444827    -0.05602734789291    -0.00000000000000     0.00000000000000
    8    -0.02881933444956     0.05602734789291     0.00258249473398     0.00000000000000     0.00000000000000
    9     0.00000000000000    -0.00000000000000    -0.00000000000000    -0.00013694791859     0.00000000000000
   10     0.00000000000000     0.00000000000000     0.00000000000000     0.00000000000000    -0.00013694791859

                 6                   7                   8                   9                  10

    1    -0.00516371995815     0.01815191746460    -0.02881933444956     0.00000000000000     0.00000000000000
    2     0.01815191746460    -0.06467196444827     0.05602734789291    -0.00000000000000     0.00000000000000
    3     0.02881933444956    -0.05602734789291     0.00258249473398    -0.00000000000000     0.00000000000000
    4     0.00000000000000    -0.00000000000000     0.00000000000000    -0.00013694791859     0.00000000000000
    5     0.00000000000000     0.00000000000000     0.00000000000000     0.00000000000000    -0.00013694791859
    6    -0.36020946151609    -0.34785915055188     0.02017906315759     0.00000000000000     0.00000000000000
    7    -0.34785915055188    -0.30076696664783     0.00616970526271    -0.00000000000000     0.00000000000000
    8     0.02017906315759     0.00616970526271     0.72632662589210    -0.00000000000000     0.00000000000000
    9     0.00000000000000    -0.00000000000000    -0.00000000000000     0.73003361045794     0.00000000000000
   10     0.00000000000000     0.00000000000000     0.00000000000000     0.00000000000000     0.73003361045794



  ## C (Symmetry 0) ##
  Irrep: 1 Size: 10 x 10

                 1                   2                   3                   4                   5

    1     0.36009514517971     0.40603148005775     0.02296945184888    -0.03673483285910     0.01520086057905
    2     0.44487917620263     0.33491832105908    -0.00661185878487     0.10158279704415    -0.03532652054452
    3     0.50248283789181    -0.49638412108613    -0.04625575195756     0.01962714373519    -0.00634230394991
    4     0.45523697153863    -0.53596468849080     0.07416975501391    -0.00000640058208     0.00000045592722
    5     0.01943935832188    -0.04598172943894     0.70533598618088    -0.00000000000001     0.00000000000000
    6     0.02533848482889     0.00763422445437    -0.00083029829594     0.52462832498635    -0.82457547407547
    7    -0.06231116827042    -0.02534697664204     0.00179023174689    -0.97021652575093     0.19286265600202
    8     0.00722004371146     0.00480932568650    -0.00020570108252    -0.04737317086107    -0.70641470075528
    9    -0.00000413115051     0.00000486373238    -0.00000067307018     0.70531964269241    -0.05024143466824
   10    -0.04997371388452     0.05486686669219     0.70319507702770     0.00000000000000    -0.00000000000000

                 6                   7                   8                   9                  10

    1     0.91603978996214     0.87860388509833    -0.02560617921857    -0.03810254662658    -0.00399993239307
    2    -0.95568439188155    -0.85560972879881     0.01325443431396     0.10416711310294     0.00095367111346
    3     0.49830255879187    -0.49993750462268     0.04627557813345     0.01965780389407    -0.00591187809925
    4    -0.45523697153863     0.53596468849080     0.07416975501391     0.00000640058208    -0.00000045592722
    5     0.01943845132962    -0.04598073364301    -0.70534874890159    -0.00000000000004     0.00000000000000
    6    -0.02915027300698    -0.03868312670609     0.00108872690116     0.52478836214449    -0.82232877570288
    7     0.08699453402130     0.10156809571356    -0.00249835698092    -0.97060635306384     0.18739002448977
    8    -0.02049264379892    -0.01874742858720     0.00033713647332     0.05317963948544     0.70520645882853
    9     0.00000413115051    -0.00000486373237    -0.00000067307016    -0.70531964268997     0.05024143466774
   10     0.04997336107908    -0.05486603215809     0.70320787860423    -0.00000000000001     0.00000000000000




 In Bisection function HOMO = -0.696  LUMO =  0.736

 0.02008 = (-0.69613 + 0.73628)/2.0
 sum -  nocc_ = 2.03738043
 On Iteration in Bisection 0
 a: 2.03738  b:-0.11520

 -0.33802 = (-0.69613 + 0.02008)/2.0
 sum -  nocc_ = 1.00140506
 On Iteration in Bisection 1
 a: 1.00141  b:-0.11520

 -0.51708 = (-0.69613 + -0.33802)/2.0
 sum -  nocc_ = 0.85830141
 On Iteration in Bisection 2
 a: 0.85830  b:-0.11520

 -0.60660 = (-0.69613 + -0.51708)/2.0
 sum -  nocc_ = 0.52443214
 On Iteration in Bisection 3
 a: 0.52443  b:-0.11520

 -0.65136 = (-0.69613 + -0.60660)/2.0
 sum -  nocc_ = 0.22884577
 On Iteration in Bisection 4
 a: 0.22885  b:-0.11520

 -0.67374 = (-0.69613 + -0.65136)/2.0
 sum -  nocc_ = 0.05853378
 On Iteration in Bisection 5
 a: 0.05853  b:-0.11520

 -0.68494 = (-0.69613 + -0.67374)/2.0
 sum -  nocc_ = -0.02854447
 On Iteration in Bisection 6
 a: -0.02854  b:-0.11520

 -0.67934 = (-0.68494 + -0.67374)/2.0
 sum -  nocc_ = 0.01502245
 On Iteration in Bisection 7
 a: 0.01502  b:-0.02854

 -0.68214 = (-0.68494 + -0.67934)/2.0
 sum -  nocc_ = -0.00676424
 On Iteration in Bisection 8
 a: -0.00676  b:-0.02854

 -0.68074 = (-0.68214 + -0.67934)/2.0
 sum -  nocc_ = 0.00412957
 On Iteration in Bisection 9
 a: 0.00413  b:-0.00676

 -0.68144 = (-0.68214 + -0.68074)/2.0
 sum -  nocc_ = -0.00131738
 On Iteration in Bisection 10
 a: -0.00132  b:-0.00676

 -0.68109 = (-0.68144 + -0.68074)/2.0
 sum -  nocc_ = 0.00140611
 On Iteration in Bisection 11
 a: 0.00141  b:-0.00132

 -0.68126 = (-0.68144 + -0.68109)/2.0
 sum -  nocc_ = 0.00004437
 On Iteration in Bisection 12
 a: 0.00004  b:-0.00132

 -0.68135 = (-0.68144 + -0.68126)/2.0
 sum -  nocc_ = -0.00063650
 On Iteration in Bisection 13
 a: -0.00064  b:-0.00132

 -0.68131 = (-0.68135 + -0.68126)/2.0
 sum -  nocc_ = -0.00029607
 On Iteration in Bisection 14
 a: -0.00030  b:-0.00064

 -0.68129 = (-0.68131 + -0.68126)/2.0
 sum -  nocc_ = -0.00012585
 On Iteration in Bisection 15
 a: -0.00013  b:-0.00030

 -0.68127 = (-0.68129 + -0.68126)/2.0
 sum -  nocc_ = -0.00004074
 On Iteration in Bisection 16
 a: -0.00004  b:-0.00013

 -0.68127 = (-0.68127 + -0.68126)/2.0
 sum -  nocc_ = 0.00000181
 On Iteration in Bisection 17
 a: 0.00000  b:-0.00004

 -0.68127 = (-0.68127 + -0.68127)/2.0
 sum -  nocc_ = -0.00001947
 On Iteration in Bisection 18
 a: -0.00002  b:-0.00004

 -0.68127 = (-0.68127 + -0.68127)/2.0
 sum -  nocc_ = -0.00000883
 On Iteration in Bisection 19
 a: -0.00001  b:-0.00002

 -0.68127 = (-0.68127 + -0.68127)/2.0
 sum -  nocc_ = -0.00000351
 On Iteration in Bisection 20
 a: -0.00000  b:-0.00001

 -0.68127 = (-0.68127 + -0.68127)/2.0
 sum -  nocc_ = -0.00000085
 On Iteration in Bisection 21
 a: -0.00000  b:-0.00000

 -0.68127 = (-0.68127 + -0.68127)/2.0
 sum -  nocc_ = 0.00000048
 On Iteration in Bisection 22
 a: 0.00000  b:-0.00000

 -0.68127 = (-0.68127 + -0.68127)/2.0
 sum -  nocc_ = -0.00000018
 On Iteration in Bisection 23
 a: -0.00000  b:-0.00000

 -0.68127 = (-0.68127 + -0.68127)/2.0
 sum -  nocc_ = 0.00000015
 On Iteration in Bisection 24
 a: 0.00000  b:-0.00000

 -0.68127 = (-0.68127 + -0.68127)/2.0
 sum -  nocc_ = -0.00000002
 On Iteration in Bisection 25
 a: -0.00000  b:-0.00000

 -0.68127 = (-0.68127 + -0.68127)/2.0
 sum -  nocc_ = 0.00000007
 On Iteration in Bisection 26
 a: 0.00000  b:-0.00000

 -0.68127 = (-0.68127 + -0.68127)/2.0
 sum -  nocc_ = 0.00000002
 On Iteration in Bisection 27
 a: 0.00000  b:-0.00000

 -0.68127 = (-0.68127 + -0.68127)/2.0
 sum -  nocc_ = 0.00000000
 ef = -0.68127 sum = 1.00000 

 Iter: 0  T:    20000.000  val:-0.681269  sumni 0.00000
 ne = 1.0000

Nuc Replusion =       0.182474899514
 1st iteration =       0.035364689186
 In Bisection function HOMO = -0.311  LUMO =  1.977

 0.83318 = (-0.31061 + 1.97697)/2.0
 sum -  nocc_ = 2.08526535
 On Iteration in Bisection 0
 a: 2.08527  b:-0.49914

 0.26129 = (-0.31061 + 0.83318)/2.0
 sum -  nocc_ = 1.00511712
 On Iteration in Bisection 1
 a: 1.00512  b:-0.49914

 -0.02466 = (-0.31061 + 0.26129)/2.0
 sum -  nocc_ = 0.06236910
 On Iteration in Bisection 2
 a: 0.06237  b:-0.49914

 -0.16764 = (-0.31061 + -0.02466)/2.0
 sum -  nocc_ = -0.08653365
 On Iteration in Bisection 3
 a: -0.08653  b:-0.49914

 -0.09615 = (-0.16764 + -0.02466)/2.0
 sum -  nocc_ = -0.00787541
 On Iteration in Bisection 4
 a: -0.00788  b:-0.08653

 -0.06041 = (-0.09615 + -0.02466)/2.0
 sum -  nocc_ = 0.02404442
 On Iteration in Bisection 5
 a: 0.02404  b:-0.00788

 -0.07828 = (-0.09615 + -0.06041)/2.0
 sum -  nocc_ = 0.00781956
 On Iteration in Bisection 6
 a: 0.00782  b:-0.00788

 -0.08721 = (-0.09615 + -0.07828)/2.0
 sum -  nocc_ = -0.00002868
 On Iteration in Bisection 7
 a: -0.00003  b:-0.00788

 -0.08275 = (-0.08721 + -0.07828)/2.0
 sum -  nocc_ = 0.00388710
 On Iteration in Bisection 8
 a: 0.00389  b:-0.00003

 -0.08498 = (-0.08721 + -0.08275)/2.0
 sum -  nocc_ = 0.00192814
 On Iteration in Bisection 9
 a: 0.00193  b:-0.00003

 -0.08610 = (-0.08721 + -0.08498)/2.0
 sum -  nocc_ = 0.00094960
 On Iteration in Bisection 10
 a: 0.00095  b:-0.00003

 -0.08666 = (-0.08721 + -0.08610)/2.0
 sum -  nocc_ = 0.00046044
 On Iteration in Bisection 11
 a: 0.00046  b:-0.00003

 -0.08693 = (-0.08721 + -0.08666)/2.0
 sum -  nocc_ = 0.00021588
 On Iteration in Bisection 12
 a: 0.00022  b:-0.00003

 -0.08707 = (-0.08721 + -0.08693)/2.0
 sum -  nocc_ = 0.00009360
 On Iteration in Bisection 13
 a: 0.00009  b:-0.00003

 -0.08714 = (-0.08721 + -0.08707)/2.0
 sum -  nocc_ = 0.00003246
 On Iteration in Bisection 14
 a: 0.00003  b:-0.00003

 -0.08718 = (-0.08721 + -0.08714)/2.0
 sum -  nocc_ = 0.00000189
 On Iteration in Bisection 15
 a: 0.00000  b:-0.00003

 -0.08720 = (-0.08721 + -0.08718)/2.0
 sum -  nocc_ = -0.00001339
 On Iteration in Bisection 16
 a: -0.00001  b:-0.00003

 -0.08719 = (-0.08720 + -0.08718)/2.0
 sum -  nocc_ = -0.00000575
 On Iteration in Bisection 17
 a: -0.00001  b:-0.00001

 -0.08718 = (-0.08719 + -0.08718)/2.0
 sum -  nocc_ = -0.00000193
 On Iteration in Bisection 18
 a: -0.00000  b:-0.00001

 -0.08718 = (-0.08718 + -0.08718)/2.0
 sum -  nocc_ = -0.00000002
 On Iteration in Bisection 19
 a: -0.00000  b:-0.00000

 -0.08718 = (-0.08718 + -0.08718)/2.0
 sum -  nocc_ = 0.00000094
 On Iteration in Bisection 20
 a: 0.00000  b:-0.00000

 -0.08718 = (-0.08718 + -0.08718)/2.0
 sum -  nocc_ = 0.00000046
 On Iteration in Bisection 21
 a: 0.00000  b:-0.00000

 -0.08718 = (-0.08718 + -0.08718)/2.0
 sum -  nocc_ = 0.00000022
 On Iteration in Bisection 22
 a: 0.00000  b:-0.00000

 -0.08718 = (-0.08718 + -0.08718)/2.0
 sum -  nocc_ = 0.00000010
 On Iteration in Bisection 23
 a: 0.00000  b:-0.00000

 -0.08718 = (-0.08718 + -0.08718)/2.0
 sum -  nocc_ = 0.00000004
 On Iteration in Bisection 24
 a: 0.00000  b:-0.00000

 -0.08718 = (-0.08718 + -0.08718)/2.0
 sum -  nocc_ = 0.00000001
 On Iteration in Bisection 25
 a: 0.00000  b:-0.00000

 -0.08718 = (-0.08718 + -0.08718)/2.0
 sum -  nocc_ = -0.00000000
 ef = -0.08718 sum = 1.00000 

 Iter: 0  T:    20000.000  val:-0.087181  sumni 0.00000
 ne = 1.0000

 iter:1  failiter:1  energy:     -0.975925641211  total:     -0.793450741697  error:     -0.142839267157
 In Bisection function HOMO = -0.317  LUMO =  1.901

 0.79206 = (-0.31666 + 1.90078)/2.0
 sum -  nocc_ = 2.12200690
 On Iteration in Bisection 0
 a: 2.12201  b:-0.47185

 0.23770 = (-0.31666 + 0.79206)/2.0
 sum -  nocc_ = 1.08816869
 On Iteration in Bisection 1
 a: 1.08817  b:-0.47185

 -0.03948 = (-0.31666 + 0.23770)/2.0
 sum -  nocc_ = 0.68611698
 On Iteration in Bisection 2
 a: 0.68612  b:-0.47185

 -0.17807 = (-0.31666 + -0.03948)/2.0
 sum -  nocc_ = 0.10453253
 On Iteration in Bisection 3
 a: 0.10453  b:-0.47185

 -0.24736 = (-0.31666 + -0.17807)/2.0
 sum -  nocc_ = -0.17122598
 On Iteration in Bisection 4
 a: -0.17123  b:-0.47185

 -0.21272 = (-0.24736 + -0.17807)/2.0
 sum -  nocc_ = -0.03224424
 On Iteration in Bisection 5
 a: -0.03224  b:-0.17123

 -0.19539 = (-0.21272 + -0.17807)/2.0
 sum -  nocc_ = 0.03581158
 On Iteration in Bisection 6
 a: 0.03581  b:-0.03224

 -0.20405 = (-0.21272 + -0.19539)/2.0
 sum -  nocc_ = 0.00177878
 On Iteration in Bisection 7
 a: 0.00178  b:-0.03224

 -0.20839 = (-0.21272 + -0.20405)/2.0
 sum -  nocc_ = -0.01522386
 On Iteration in Bisection 8
 a: -0.01522  b:-0.03224

 -0.20622 = (-0.20839 + -0.20405)/2.0
 sum -  nocc_ = -0.00672158
 On Iteration in Bisection 9
 a: -0.00672  b:-0.01522

 -0.20514 = (-0.20622 + -0.20405)/2.0
 sum -  nocc_ = -0.00247132
 On Iteration in Bisection 10
 a: -0.00247  b:-0.00672

 -0.20460 = (-0.20514 + -0.20405)/2.0
 sum -  nocc_ = -0.00034627
 On Iteration in Bisection 11
 a: -0.00035  b:-0.00247

 -0.20433 = (-0.20460 + -0.20405)/2.0
 sum -  nocc_ = 0.00071625
 On Iteration in Bisection 12
 a: 0.00072  b:-0.00035

 -0.20446 = (-0.20460 + -0.20433)/2.0
 sum -  nocc_ = 0.00018499
 On Iteration in Bisection 13
 a: 0.00018  b:-0.00035

 -0.20453 = (-0.20460 + -0.20446)/2.0
 sum -  nocc_ = -0.00008064
 On Iteration in Bisection 14
 a: -0.00008  b:-0.00035

 -0.20449 = (-0.20453 + -0.20446)/2.0
 sum -  nocc_ = 0.00005218
 On Iteration in Bisection 15
 a: 0.00005  b:-0.00008

 -0.20451 = (-0.20453 + -0.20449)/2.0
 sum -  nocc_ = -0.00001423
 On Iteration in Bisection 16
 a: -0.00001  b:-0.00008

 -0.20450 = (-0.20451 + -0.20449)/2.0
 sum -  nocc_ = 0.00001897
 On Iteration in Bisection 17
 a: 0.00002  b:-0.00001

 -0.20451 = (-0.20451 + -0.20450)/2.0
 sum -  nocc_ = 0.00000237
 On Iteration in Bisection 18
 a: 0.00000  b:-0.00001

 -0.20451 = (-0.20451 + -0.20451)/2.0
 sum -  nocc_ = -0.00000593
 On Iteration in Bisection 19
 a: -0.00001  b:-0.00001

 -0.20451 = (-0.20451 + -0.20451)/2.0
 sum -  nocc_ = -0.00000178
 On Iteration in Bisection 20
 a: -0.00000  b:-0.00001

 -0.20451 = (-0.20451 + -0.20451)/2.0
 sum -  nocc_ = 0.00000030
 On Iteration in Bisection 21
 a: 0.00000  b:-0.00000

 -0.20451 = (-0.20451 + -0.20451)/2.0
 sum -  nocc_ = -0.00000074
 On Iteration in Bisection 22
 a: -0.00000  b:-0.00000

 -0.20451 = (-0.20451 + -0.20451)/2.0
 sum -  nocc_ = -0.00000022
 On Iteration in Bisection 23
 a: -0.00000  b:-0.00000

 -0.20451 = (-0.20451 + -0.20451)/2.0
 sum -  nocc_ = 0.00000004
 On Iteration in Bisection 24
 a: 0.00000  b:-0.00000

 -0.20451 = (-0.20451 + -0.20451)/2.0
 sum -  nocc_ = -0.00000009
 On Iteration in Bisection 25
 a: -0.00000  b:-0.00000

 -0.20451 = (-0.20451 + -0.20451)/2.0
 sum -  nocc_ = -0.00000003
 On Iteration in Bisection 26
 a: -0.00000  b:-0.00000

 -0.20451 = (-0.20451 + -0.20451)/2.0
 sum -  nocc_ = 0.00000000
 ef = -0.20451 sum = 1.00000 

 Iter: 1  T:    20000.000  val:-0.204508  sumni 0.00000
 ne = 1.0000

 iter:2  failiter:2  energy:     -0.962711107957  total:     -0.780236208443  error:      0.013214533254
 In Bisection function HOMO = -0.294  LUMO =  1.794

 0.75026 = (-0.29386 + 1.79439)/2.0
 sum -  nocc_ = 2.14189825
 On Iteration in Bisection 0
 a: 2.14190  b:-0.44125

 0.22820 = (-0.29386 + 0.75026)/2.0
 sum -  nocc_ = 1.02787861
 On Iteration in Bisection 1
 a: 1.02788  b:-0.44125

 -0.03283 = (-0.29386 + 0.22820)/2.0
 sum -  nocc_ = 0.77831502
 On Iteration in Bisection 2
 a: 0.77832  b:-0.44125

 -0.16334 = (-0.29386 + -0.03283)/2.0
 sum -  nocc_ = 0.21599091
 On Iteration in Bisection 3
 a: 0.21599  b:-0.44125

 -0.22860 = (-0.29386 + -0.16334)/2.0
 sum -  nocc_ = -0.11412823
 On Iteration in Bisection 4
 a: -0.11413  b:-0.44125

 -0.19597 = (-0.22860 + -0.16334)/2.0
 sum -  nocc_ = 0.05077655
 On Iteration in Bisection 5
 a: 0.05078  b:-0.11413

 -0.21229 = (-0.22860 + -0.19597)/2.0
 sum -  nocc_ = -0.03163985
 On Iteration in Bisection 6
 a: -0.03164  b:-0.11413

 -0.20413 = (-0.21229 + -0.19597)/2.0
 sum -  nocc_ = 0.00956494
 On Iteration in Bisection 7
 a: 0.00956  b:-0.03164

 -0.20821 = (-0.21229 + -0.20413)/2.0
 sum -  nocc_ = -0.01103661
 On Iteration in Bisection 8
 a: -0.01104  b:-0.03164

 -0.20617 = (-0.20821 + -0.20413)/2.0
 sum -  nocc_ = -0.00073584
 On Iteration in Bisection 9
 a: -0.00074  b:-0.01104

 -0.20515 = (-0.20617 + -0.20413)/2.0
 sum -  nocc_ = 0.00441452
 On Iteration in Bisection 10
 a: 0.00441  b:-0.00074

 -0.20566 = (-0.20617 + -0.20515)/2.0
 sum -  nocc_ = 0.00183934
 On Iteration in Bisection 11
 a: 0.00184  b:-0.00074

 -0.20591 = (-0.20617 + -0.20566)/2.0
 sum -  nocc_ = 0.00055175
 On Iteration in Bisection 12
 a: 0.00055  b:-0.00074

 -0.20604 = (-0.20617 + -0.20591)/2.0
 sum -  nocc_ = -0.00009204
 On Iteration in Bisection 13
 a: -0.00009  b:-0.00074

 -0.20598 = (-0.20604 + -0.20591)/2.0
 sum -  nocc_ = 0.00022985
 On Iteration in Bisection 14
 a: 0.00023  b:-0.00009

 -0.20601 = (-0.20604 + -0.20598)/2.0
 sum -  nocc_ = 0.00006891
 On Iteration in Bisection 15
 a: 0.00007  b:-0.00009

 -0.20603 = (-0.20604 + -0.20601)/2.0
 sum -  nocc_ = -0.00001157
 On Iteration in Bisection 16
 a: -0.00001  b:-0.00009

 -0.20602 = (-0.20603 + -0.20601)/2.0
 sum -  nocc_ = 0.00002867
 On Iteration in Bisection 17
 a: 0.00003  b:-0.00001

 -0.20602 = (-0.20603 + -0.20602)/2.0
 sum -  nocc_ = 0.00000855
 On Iteration in Bisection 18
 a: 0.00001  b:-0.00001

 -0.20602 = (-0.20603 + -0.20602)/2.0
 sum -  nocc_ = -0.00000151
 On Iteration in Bisection 19
 a: -0.00000  b:-0.00001

 -0.20602 = (-0.20602 + -0.20602)/2.0
 sum -  nocc_ = 0.00000352
 On Iteration in Bisection 20
 a: 0.00000  b:-0.00000

 -0.20602 = (-0.20602 + -0.20602)/2.0
 sum -  nocc_ = 0.00000101
 On Iteration in Bisection 21
 a: 0.00000  b:-0.00000

 -0.20602 = (-0.20602 + -0.20602)/2.0
 sum -  nocc_ = -0.00000025
 On Iteration in Bisection 22
 a: -0.00000  b:-0.00000

 -0.20602 = (-0.20602 + -0.20602)/2.0
 sum -  nocc_ = 0.00000038
 On Iteration in Bisection 23
 a: 0.00000  b:-0.00000

 -0.20602 = (-0.20602 + -0.20602)/2.0
 sum -  nocc_ = 0.00000006
 On Iteration in Bisection 24
 a: 0.00000  b:-0.00000

 -0.20602 = (-0.20602 + -0.20602)/2.0
 sum -  nocc_ = -0.00000009
 On Iteration in Bisection 25
 a: -0.00000  b:-0.00000

 -0.20602 = (-0.20602 + -0.20602)/2.0
 sum -  nocc_ = -0.00000002
 On Iteration in Bisection 26
 a: -0.00000  b:-0.00000

 -0.20602 = (-0.20602 + -0.20602)/2.0
 sum -  nocc_ = 0.00000002
 On Iteration in Bisection 27
 a: 0.00000  b:-0.00000

 -0.20602 = (-0.20602 + -0.20602)/2.0
 sum -  nocc_ = 0.00000000
 ef = -0.20602 sum = 1.00000 

 Iter: 2  T:    20000.000  val:-0.206023  sumni 0.00000
 ne = 1.0000

 iter:3  failiter:3  energy:     -0.937250975174  total:     -0.754776075661  error:      0.025460132783
 In Bisection function HOMO = -0.285  LUMO =  1.724

 0.71946 = (-0.28459 + 1.72352)/2.0
 sum -  nocc_ = 2.15346579
 On Iteration in Bisection 0
 a: 2.15347  b:-0.41020

 0.21744 = (-0.28459 + 0.71946)/2.0
 sum -  nocc_ = 1.01232830
 On Iteration in Bisection 1
 a: 1.01233  b:-0.41020

 -0.03357 = (-0.28459 + 0.21744)/2.0
 sum -  nocc_ = 0.82019731
 On Iteration in Bisection 2
 a: 0.82020  b:-0.41020

 -0.15908 = (-0.28459 + -0.03357)/2.0
 sum -  nocc_ = 0.29607589
 On Iteration in Bisection 3
 a: 0.29608  b:-0.41020

 -0.22183 = (-0.28459 + -0.15908)/2.0
 sum -  nocc_ = -0.06078238
 On Iteration in Bisection 4
 a: -0.06078  b:-0.41020

 -0.19046 = (-0.22183 + -0.15908)/2.0
 sum -  nocc_ = 0.11922668
 On Iteration in Bisection 5
 a: 0.11923  b:-0.06078

 -0.20614 = (-0.22183 + -0.19046)/2.0
 sum -  nocc_ = 0.02930625
 On Iteration in Bisection 6
 a: 0.02931  b:-0.06078

 -0.21399 = (-0.22183 + -0.20614)/2.0
 sum -  nocc_ = -0.01574935
 On Iteration in Bisection 7
 a: -0.01575  b:-0.06078

 -0.21007 = (-0.21399 + -0.20614)/2.0
 sum -  nocc_ = 0.00677960
 On Iteration in Bisection 8
 a: 0.00678  b:-0.01575

 -0.21203 = (-0.21399 + -0.21007)/2.0
 sum -  nocc_ = -0.00448508
 On Iteration in Bisection 9
 a: -0.00449  b:-0.01575

 -0.21105 = (-0.21203 + -0.21007)/2.0
 sum -  nocc_ = 0.00114727
 On Iteration in Bisection 10
 a: 0.00115  b:-0.00449

 -0.21154 = (-0.21203 + -0.21105)/2.0
 sum -  nocc_ = -0.00166891
 On Iteration in Bisection 11
 a: -0.00167  b:-0.00449

 -0.21129 = (-0.21154 + -0.21105)/2.0
 sum -  nocc_ = -0.00026082
 On Iteration in Bisection 12
 a: -0.00026  b:-0.00167

 -0.21117 = (-0.21129 + -0.21105)/2.0
 sum -  nocc_ = 0.00044323
 On Iteration in Bisection 13
 a: 0.00044  b:-0.00026

 -0.21123 = (-0.21129 + -0.21117)/2.0
 sum -  nocc_ = 0.00009120
 On Iteration in Bisection 14
 a: 0.00009  b:-0.00026

 -0.21126 = (-0.21129 + -0.21123)/2.0
 sum -  nocc_ = -0.00008481
 On Iteration in Bisection 15
 a: -0.00008  b:-0.00026

 -0.21125 = (-0.21126 + -0.21123)/2.0
 sum -  nocc_ = 0.00000320
 On Iteration in Bisection 16
 a: 0.00000  b:-0.00008

 -0.21125 = (-0.21126 + -0.21125)/2.0
 sum -  nocc_ = -0.00004081
 On Iteration in Bisection 17
 a: -0.00004  b:-0.00008

 -0.21125 = (-0.21125 + -0.21125)/2.0
 sum -  nocc_ = -0.00001880
 On Iteration in Bisection 18
 a: -0.00002  b:-0.00004

 -0.21125 = (-0.21125 + -0.21125)/2.0
 sum -  nocc_ = -0.00000780
 On Iteration in Bisection 19
 a: -0.00001  b:-0.00002

 -0.21125 = (-0.21125 + -0.21125)/2.0
 sum -  nocc_ = -0.00000230
 On Iteration in Bisection 20
 a: -0.00000  b:-0.00001

 -0.21125 = (-0.21125 + -0.21125)/2.0
 sum -  nocc_ = 0.00000045
 On Iteration in Bisection 21
 a: 0.00000  b:-0.00000

 -0.21125 = (-0.21125 + -0.21125)/2.0
 sum -  nocc_ = -0.00000093
 On Iteration in Bisection 22
 a: -0.00000  b:-0.00000

 -0.21125 = (-0.21125 + -0.21125)/2.0
 sum -  nocc_ = -0.00000024
 On Iteration in Bisection 23
 a: -0.00000  b:-0.00000

 -0.21125 = (-0.21125 + -0.21125)/2.0
 sum -  nocc_ = 0.00000010
 On Iteration in Bisection 24
 a: 0.00000  b:-0.00000

 -0.21125 = (-0.21125 + -0.21125)/2.0
 sum -  nocc_ = -0.00000007
 On Iteration in Bisection 25
 a: -0.00000  b:-0.00000

 -0.21125 = (-0.21125 + -0.21125)/2.0
 sum -  nocc_ = 0.00000002
 On Iteration in Bisection 26
 a: 0.00000  b:-0.00000

 -0.21125 = (-0.21125 + -0.21125)/2.0
 sum -  nocc_ = -0.00000003
 On Iteration in Bisection 27
 a: -0.00000  b:-0.00000

 -0.21125 = (-0.21125 + -0.21125)/2.0
 sum -  nocc_ = -0.00000000
 ef = -0.21125 sum = 1.00000 

 Iter: 3  T:    20000.000  val:-0.211247  sumni 0.00000
 ne = 1.0000

 iter:4  failiter:4  energy:     -0.927668461637  total:     -0.745193562123  error:      0.009582513538
 In Bisection function HOMO = -0.279  LUMO =  1.671

 0.69632 = (-0.27884 + 1.67147)/2.0
 sum -  nocc_ = 2.15350056
 On Iteration in Bisection 0
 a: 2.15350  b:-0.38722

 0.20874 = (-0.27884 + 0.69632)/2.0
 sum -  nocc_ = 1.00525166
 On Iteration in Bisection 1
 a: 1.00525  b:-0.38722

 -0.03505 = (-0.27884 + 0.20874)/2.0
 sum -  nocc_ = 0.83586198
 On Iteration in Bisection 2
 a: 0.83586  b:-0.38722

 -0.15695 = (-0.27884 + -0.03505)/2.0
 sum -  nocc_ = 0.33822916
 On Iteration in Bisection 3
 a: 0.33823  b:-0.38722

 -0.21789 = (-0.27884 + -0.15695)/2.0
 sum -  nocc_ = -0.02673284
 On Iteration in Bisection 4
 a: -0.02673  b:-0.38722

 -0.18742 = (-0.21789 + -0.15695)/2.0
 sum -  nocc_ = 0.15897322
 On Iteration in Bisection 5
 a: 0.15897  b:-0.02673

 -0.20266 = (-0.21789 + -0.18742)/2.0
 sum -  nocc_ = 0.06643789
 On Iteration in Bisection 6
 a: 0.06644  b:-0.02673

 -0.21027 = (-0.21789 + -0.20266)/2.0
 sum -  nocc_ = 0.01987586
 On Iteration in Bisection 7
 a: 0.01988  b:-0.02673

 -0.21408 = (-0.21789 + -0.21027)/2.0
 sum -  nocc_ = -0.00342953
 On Iteration in Bisection 8
 a: -0.00343  b:-0.02673

 -0.21218 = (-0.21408 + -0.21027)/2.0
 sum -  nocc_ = 0.00822376
 On Iteration in Bisection 9
 a: 0.00822  b:-0.00343

 -0.21313 = (-0.21408 + -0.21218)/2.0
 sum -  nocc_ = 0.00239716
 On Iteration in Bisection 10
 a: 0.00240  b:-0.00343

 -0.21361 = (-0.21408 + -0.21313)/2.0
 sum -  nocc_ = -0.00051618
 On Iteration in Bisection 11
 a: -0.00052  b:-0.00343

 -0.21337 = (-0.21361 + -0.21313)/2.0
 sum -  nocc_ = 0.00094049
 On Iteration in Bisection 12
 a: 0.00094  b:-0.00052

 -0.21349 = (-0.21361 + -0.21337)/2.0
 sum -  nocc_ = 0.00021215
 On Iteration in Bisection 13
 a: 0.00021  b:-0.00052

 -0.21355 = (-0.21361 + -0.21349)/2.0
 sum -  nocc_ = -0.00015202
 On Iteration in Bisection 14
 a: -0.00015  b:-0.00052

 -0.21352 = (-0.21355 + -0.21349)/2.0
 sum -  nocc_ = 0.00003007
 On Iteration in Bisection 15
 a: 0.00003  b:-0.00015

 -0.21353 = (-0.21355 + -0.21352)/2.0
 sum -  nocc_ = -0.00006097
 On Iteration in Bisection 16
 a: -0.00006  b:-0.00015

 -0.21353 = (-0.21353 + -0.21352)/2.0
 sum -  nocc_ = -0.00001545
 On Iteration in Bisection 17
 a: -0.00002  b:-0.00006

 -0.21352 = (-0.21353 + -0.21352)/2.0
 sum -  nocc_ = 0.00000731
 On Iteration in Bisection 18
 a: 0.00001  b:-0.00002

 -0.21352 = (-0.21353 + -0.21352)/2.0
 sum -  nocc_ = -0.00000407
 On Iteration in Bisection 19
 a: -0.00000  b:-0.00002

 -0.21352 = (-0.21352 + -0.21352)/2.0
 sum -  nocc_ = 0.00000162
 On Iteration in Bisection 20
 a: 0.00000  b:-0.00000

 -0.21352 = (-0.21352 + -0.21352)/2.0
 sum -  nocc_ = -0.00000123
 On Iteration in Bisection 21
 a: -0.00000  b:-0.00000

 -0.21352 = (-0.21352 + -0.21352)/2.0
 sum -  nocc_ = 0.00000020
 On Iteration in Bisection 22
 a: 0.00000  b:-0.00000

 -0.21352 = (-0.21352 + -0.21352)/2.0
 sum -  nocc_ = -0.00000052
 On Iteration in Bisection 23
 a: -0.00000  b:-0.00000

 -0.21352 = (-0.21352 + -0.21352)/2.0
 sum -  nocc_ = -0.00000016
 On Iteration in Bisection 24
 a: -0.00000  b:-0.00000

 -0.21352 = (-0.21352 + -0.21352)/2.0
 sum -  nocc_ = 0.00000002
 On Iteration in Bisection 25
 a: 0.00000  b:-0.00000

 -0.21352 = (-0.21352 + -0.21352)/2.0
 sum -  nocc_ = -0.00000007
 On Iteration in Bisection 26
 a: -0.00000  b:-0.00000

 -0.21352 = (-0.21352 + -0.21352)/2.0
 sum -  nocc_ = -0.00000003
 On Iteration in Bisection 27
 a: -0.00000  b:-0.00000

 -0.21352 = (-0.21352 + -0.21352)/2.0
 sum -  nocc_ = -0.00000000
 ef = -0.21352 sum = 1.00000 

 Iter: 4  T:    20000.000  val:-0.213524  sumni 0.00000
 ne = 1.0000

 iter:5  failiter:5  energy:     -0.922449527179  total:     -0.739974627665  error:      0.005218934458
 In Bisection function HOMO = -0.276  LUMO =  1.631

 0.67771 = (-0.27584 + 1.63127)/2.0
 sum -  nocc_ = 2.13453327
 On Iteration in Bisection 0
 a: 2.13453  b:-0.37214

 0.20094 = (-0.27584 + 0.67771)/2.0
 sum -  nocc_ = 1.00166609
 On Iteration in Bisection 1
 a: 1.00167  b:-0.37214

 -0.03745 = (-0.27584 + 0.20094)/2.0
 sum -  nocc_ = 0.84090219
 On Iteration in Bisection 2
 a: 0.84090  b:-0.37214

 -0.15665 = (-0.27584 + -0.03745)/2.0
 sum -  nocc_ = 0.35837456
 On Iteration in Bisection 3
 a: 0.35837  b:-0.37214

 -0.21624 = (-0.27584 + -0.15665)/2.0
 sum -  nocc_ = -0.00759389
 On Iteration in Bisection 4
 a: -0.00759  b:-0.37214

 -0.18644 = (-0.21624 + -0.15665)/2.0
 sum -  nocc_ = 0.17957005
 On Iteration in Bisection 5
 a: 0.17957  b:-0.00759

 -0.20134 = (-0.21624 + -0.18644)/2.0
 sum -  nocc_ = 0.08647564
 On Iteration in Bisection 6
 a: 0.08648  b:-0.00759

 -0.20879 = (-0.21624 + -0.20134)/2.0
 sum -  nocc_ = 0.03949597
 On Iteration in Bisection 7
 a: 0.03950  b:-0.00759

 -0.21252 = (-0.21624 + -0.20879)/2.0
 sum -  nocc_ = 0.01595658
 On Iteration in Bisection 8
 a: 0.01596  b:-0.00759

 -0.21438 = (-0.21624 + -0.21252)/2.0
 sum -  nocc_ = 0.00418171
 On Iteration in Bisection 9
 a: 0.00418  b:-0.00759

 -0.21531 = (-0.21624 + -0.21438)/2.0
 sum -  nocc_ = -0.00170613
 On Iteration in Bisection 10
 a: -0.00171  b:-0.00759

 -0.21485 = (-0.21531 + -0.21438)/2.0
 sum -  nocc_ = 0.00123779
 On Iteration in Bisection 11
 a: 0.00124  b:-0.00171

 -0.21508 = (-0.21531 + -0.21485)/2.0
 sum -  nocc_ = -0.00023417
 On Iteration in Bisection 12
 a: -0.00023  b:-0.00171

 -0.21496 = (-0.21508 + -0.21485)/2.0
 sum -  nocc_ = 0.00050181
 On Iteration in Bisection 13
 a: 0.00050  b:-0.00023

 -0.21502 = (-0.21508 + -0.21496)/2.0
 sum -  nocc_ = 0.00013382
 On Iteration in Bisection 14
 a: 0.00013  b:-0.00023

 -0.21505 = (-0.21508 + -0.21502)/2.0
 sum -  nocc_ = -0.00005017
 On Iteration in Bisection 15
 a: -0.00005  b:-0.00023

 -0.21504 = (-0.21505 + -0.21502)/2.0
 sum -  nocc_ = 0.00004183
 On Iteration in Bisection 16
 a: 0.00004  b:-0.00005

 -0.21504 = (-0.21505 + -0.21504)/2.0
 sum -  nocc_ = -0.00000417
 On Iteration in Bisection 17
 a: -0.00000  b:-0.00005

 -0.21504 = (-0.21504 + -0.21504)/2.0
 sum -  nocc_ = 0.00001883
 On Iteration in Bisection 18
 a: 0.00002  b:-0.00000

 -0.21504 = (-0.21504 + -0.21504)/2.0
 sum -  nocc_ = 0.00000733
 On Iteration in Bisection 19
 a: 0.00001  b:-0.00000

 -0.21504 = (-0.21504 + -0.21504)/2.0
 sum -  nocc_ = 0.00000158
 On Iteration in Bisection 20
 a: 0.00000  b:-0.00000

 -0.21504 = (-0.21504 + -0.21504)/2.0
 sum -  nocc_ = -0.00000130
 On Iteration in Bisection 21
 a: -0.00000  b:-0.00000

 -0.21504 = (-0.21504 + -0.21504)/2.0
 sum -  nocc_ = 0.00000014
 On Iteration in Bisection 22
 a: 0.00000  b:-0.00000

 -0.21504 = (-0.21504 + -0.21504)/2.0
 sum -  nocc_ = -0.00000058
 On Iteration in Bisection 23
 a: -0.00000  b:-0.00000

 -0.21504 = (-0.21504 + -0.21504)/2.0
 sum -  nocc_ = -0.00000022
 On Iteration in Bisection 24
 a: -0.00000  b:-0.00000

 -0.21504 = (-0.21504 + -0.21504)/2.0
 sum -  nocc_ = -0.00000004
 On Iteration in Bisection 25
 a: -0.00000  b:-0.00000

 -0.21504 = (-0.21504 + -0.21504)/2.0
 sum -  nocc_ = 0.00000005
 On Iteration in Bisection 26
 a: 0.00000  b:-0.00000

 -0.21504 = (-0.21504 + -0.21504)/2.0
 sum -  nocc_ = 0.00000000
 ef = -0.21504 sum = 1.00000 

 Iter: 5  T:    20000.000  val:-0.215042  sumni 0.00000
 ne = 1.0000

 iter:6  failiter:6  energy:     -0.920019923420  total:     -0.737545023906  error:      0.002429603760
 In Bisection function HOMO = -0.274  LUMO =  1.599

 0.66251 = (-0.27441 + 1.59943)/2.0
 sum -  nocc_ = 2.09854880
 On Iteration in Bisection 0
 a: 2.09855  b:-0.36349

 0.19405 = (-0.27441 + 0.66251)/2.0
 sum -  nocc_ = 0.99957308
 On Iteration in Bisection 1
 a: 0.99957  b:-0.36349

 -0.04018 = (-0.27441 + 0.19405)/2.0
 sum -  nocc_ = 0.84051025
 On Iteration in Bisection 2
 a: 0.84051  b:-0.36349

 -0.15730 = (-0.27441 + -0.04018)/2.0
 sum -  nocc_ = 0.36520051
 On Iteration in Bisection 3
 a: 0.36520  b:-0.36349

 -0.21586 = (-0.27441 + -0.15730)/2.0
 sum -  nocc_ = 0.00094303
 On Iteration in Bisection 4
 a: 0.00094  b:-0.36349

 -0.24514 = (-0.27441 + -0.21586)/2.0
 sum -  nocc_ = -0.18579674
 On Iteration in Bisection 5
 a: -0.18580  b:-0.36349

 -0.23050 = (-0.24514 + -0.21586)/2.0
 sum -  nocc_ = -0.09298188
 On Iteration in Bisection 6
 a: -0.09298  b:-0.18580

 -0.22318 = (-0.23050 + -0.21586)/2.0
 sum -  nocc_ = -0.04608776
 On Iteration in Bisection 7
 a: -0.04609  b:-0.09298

 -0.21952 = (-0.22318 + -0.21586)/2.0
 sum -  nocc_ = -0.02258072
 On Iteration in Bisection 8
 a: -0.02258  b:-0.04609

 -0.21769 = (-0.21952 + -0.21586)/2.0
 sum -  nocc_ = -0.01081985
 On Iteration in Bisection 9
 a: -0.01082  b:-0.02258

 -0.21677 = (-0.21769 + -0.21586)/2.0
 sum -  nocc_ = -0.00493852
 On Iteration in Bisection 10
 a: -0.00494  b:-0.01082

 -0.21631 = (-0.21677 + -0.21586)/2.0
 sum -  nocc_ = -0.00199776
 On Iteration in Bisection 11
 a: -0.00200  b:-0.00494

 -0.21609 = (-0.21631 + -0.21586)/2.0
 sum -  nocc_ = -0.00052736
 On Iteration in Bisection 12
 a: -0.00053  b:-0.00200

 -0.21597 = (-0.21609 + -0.21586)/2.0
 sum -  nocc_ = 0.00020784
 On Iteration in Bisection 13
 a: 0.00021  b:-0.00053

 -0.21603 = (-0.21609 + -0.21597)/2.0
 sum -  nocc_ = -0.00015976
 On Iteration in Bisection 14
 a: -0.00016  b:-0.00053

 -0.21600 = (-0.21603 + -0.21597)/2.0
 sum -  nocc_ = 0.00002404
 On Iteration in Bisection 15
 a: 0.00002  b:-0.00016

 -0.21601 = (-0.21603 + -0.21600)/2.0
 sum -  nocc_ = -0.00006786
 On Iteration in Bisection 16
 a: -0.00007  b:-0.00016

 -0.21601 = (-0.21601 + -0.21600)/2.0
 sum -  nocc_ = -0.00002191
 On Iteration in Bisection 17
 a: -0.00002  b:-0.00007

 -0.21600 = (-0.21601 + -0.21600)/2.0
 sum -  nocc_ = 0.00000106
 On Iteration in Bisection 18
 a: 0.00000  b:-0.00002

 -0.21601 = (-0.21601 + -0.21600)/2.0
 sum -  nocc_ = -0.00001043
 On Iteration in Bisection 19
 a: -0.00001  b:-0.00002

 -0.21600 = (-0.21601 + -0.21600)/2.0
 sum -  nocc_ = -0.00000468
 On Iteration in Bisection 20
 a: -0.00000  b:-0.00001

 -0.21600 = (-0.21600 + -0.21600)/2.0
 sum -  nocc_ = -0.00000181
 On Iteration in Bisection 21
 a: -0.00000  b:-0.00000

 -0.21600 = (-0.21600 + -0.21600)/2.0
 sum -  nocc_ = -0.00000037
 On Iteration in Bisection 22
 a: -0.00000  b:-0.00000

 -0.21600 = (-0.21600 + -0.21600)/2.0
 sum -  nocc_ = 0.00000034
 On Iteration in Bisection 23
 a: 0.00000  b:-0.00000

 -0.21600 = (-0.21600 + -0.21600)/2.0
 sum -  nocc_ = -0.00000001
 On Iteration in Bisection 24
 a: -0.00000  b:-0.00000

 -0.21600 = (-0.21600 + -0.21600)/2.0
 sum -  nocc_ = 0.00000016
 On Iteration in Bisection 25
 a: 0.00000  b:-0.00000

 -0.21600 = (-0.21600 + -0.21600)/2.0
 sum -  nocc_ = 0.00000007
 On Iteration in Bisection 26
 a: 0.00000  b:-0.00000

 -0.21600 = (-0.21600 + -0.21600)/2.0
 sum -  nocc_ = 0.00000003
 On Iteration in Bisection 27
 a: 0.00000  b:-0.00000

 -0.21600 = (-0.21600 + -0.21600)/2.0
 sum -  nocc_ = 0.00000001
 ef = -0.21600 sum = 1.00000 

 Iter: 6  T:    20000.000  val:-0.216004  sumni 0.00000
 ne = 1.0000

 iter:7  failiter:7  energy:     -0.918995957337  total:     -0.736521057824  error:      0.001023966082
 In Bisection function HOMO = -0.274  LUMO =  1.574

 0.65006 = (-0.27388 + 1.57401)/2.0
 sum -  nocc_ = 2.05116696
 On Iteration in Bisection 0
 a: 2.05117  b:-0.35909

 0.18809 = (-0.27388 + 0.65006)/2.0
 sum -  nocc_ = 0.99822772
 On Iteration in Bisection 1
 a: 0.99823  b:-0.35909

 -0.04290 = (-0.27388 + 0.18809)/2.0
 sum -  nocc_ = 0.83755700
 On Iteration in Bisection 2
 a: 0.83756  b:-0.35909

 -0.15839 = (-0.27388 + -0.04290)/2.0
 sum -  nocc_ = 0.36496391
 On Iteration in Bisection 3
 a: 0.36496  b:-0.35909

 -0.21614 = (-0.27388 + -0.15839)/2.0
 sum -  nocc_ = 0.00324948
 On Iteration in Bisection 4
 a: 0.00325  b:-0.35909

 -0.24501 = (-0.27388 + -0.21614)/2.0
 sum -  nocc_ = -0.18239366
 On Iteration in Bisection 5
 a: -0.18239  b:-0.35909

 -0.23057 = (-0.24501 + -0.21614)/2.0
 sum -  nocc_ = -0.09011670
 On Iteration in Bisection 6
 a: -0.09012  b:-0.18239

 -0.22335 = (-0.23057 + -0.21614)/2.0
 sum -  nocc_ = -0.04349902
 On Iteration in Bisection 7
 a: -0.04350  b:-0.09012

 -0.21975 = (-0.22335 + -0.21614)/2.0
 sum -  nocc_ = -0.02013233
 On Iteration in Bisection 8
 a: -0.02013  b:-0.04350

 -0.21794 = (-0.21975 + -0.21614)/2.0
 sum -  nocc_ = -0.00844222
 On Iteration in Bisection 9
 a: -0.00844  b:-0.02013

 -0.21704 = (-0.21794 + -0.21614)/2.0
 sum -  nocc_ = -0.00259643
 On Iteration in Bisection 10
 a: -0.00260  b:-0.00844

 -0.21659 = (-0.21704 + -0.21614)/2.0
 sum -  nocc_ = 0.00032653
 On Iteration in Bisection 11
 a: 0.00033  b:-0.00260

 -0.21681 = (-0.21704 + -0.21659)/2.0
 sum -  nocc_ = -0.00113495
 On Iteration in Bisection 12
 a: -0.00113  b:-0.00260

 -0.21670 = (-0.21681 + -0.21659)/2.0
 sum -  nocc_ = -0.00040421
 On Iteration in Bisection 13
 a: -0.00040  b:-0.00113

 -0.21664 = (-0.21670 + -0.21659)/2.0
 sum -  nocc_ = -0.00003884
 On Iteration in Bisection 14
 a: -0.00004  b:-0.00040

 -0.21662 = (-0.21664 + -0.21659)/2.0
 sum -  nocc_ = 0.00014384
 On Iteration in Bisection 15
 a: 0.00014  b:-0.00004

 -0.21663 = (-0.21664 + -0.21662)/2.0
 sum -  nocc_ = 0.00005250
 On Iteration in Bisection 16
 a: 0.00005  b:-0.00004

 -0.21664 = (-0.21664 + -0.21663)/2.0
 sum -  nocc_ = 0.00000683
 On Iteration in Bisection 17
 a: 0.00001  b:-0.00004

 -0.21664 = (-0.21664 + -0.21664)/2.0
 sum -  nocc_ = -0.00001601
 On Iteration in Bisection 18
 a: -0.00002  b:-0.00004

 -0.21664 = (-0.21664 + -0.21664)/2.0
 sum -  nocc_ = -0.00000459
 On Iteration in Bisection 19
 a: -0.00000  b:-0.00002

 -0.21664 = (-0.21664 + -0.21664)/2.0
 sum -  nocc_ = 0.00000112
 On Iteration in Bisection 20
 a: 0.00000  b:-0.00000

 -0.21664 = (-0.21664 + -0.21664)/2.0
 sum -  nocc_ = -0.00000174
 On Iteration in Bisection 21
 a: -0.00000  b:-0.00000

 -0.21664 = (-0.21664 + -0.21664)/2.0
 sum -  nocc_ = -0.00000031
 On Iteration in Bisection 22
 a: -0.00000  b:-0.00000

 -0.21664 = (-0.21664 + -0.21664)/2.0
 sum -  nocc_ = 0.00000041
 On Iteration in Bisection 23
 a: 0.00000  b:-0.00000

 -0.21664 = (-0.21664 + -0.21664)/2.0
 sum -  nocc_ = 0.00000005
 On Iteration in Bisection 24
 a: 0.00000  b:-0.00000

 -0.21664 = (-0.21664 + -0.21664)/2.0
 sum -  nocc_ = -0.00000013
 On Iteration in Bisection 25
 a: -0.00000  b:-0.00000

 -0.21664 = (-0.21664 + -0.21664)/2.0
 sum -  nocc_ = -0.00000004
 On Iteration in Bisection 26
 a: -0.00000  b:-0.00000

 -0.21664 = (-0.21664 + -0.21664)/2.0
 sum -  nocc_ = 0.00000000
 ef = -0.21664 sum = 1.00000 

 Iter: 7  T:    20000.000  val:-0.216637  sumni 0.00000
 ne = 1.0000

 iter:8  failiter:8  energy:     -0.918698631620  total:     -0.736223732106  error:      0.000297325718
 In Bisection function HOMO = -0.274  LUMO =  1.554

 0.63995 = (-0.27380 + 1.55370)/2.0
 sum -  nocc_ = 1.99975647
 On Iteration in Bisection 0
 a: 1.99976  b:-0.35717

 0.18308 = (-0.27380 + 0.63995)/2.0
 sum -  nocc_ = 0.99729534
 On Iteration in Bisection 1
 a: 0.99730  b:-0.35717

 -0.04536 = (-0.27380 + 0.18308)/2.0
 sum -  nocc_ = 0.83361239
 On Iteration in Bisection 2
 a: 0.83361  b:-0.35717

 -0.15958 = (-0.27380 + -0.04536)/2.0
 sum -  nocc_ = 0.36146134
 On Iteration in Bisection 3
 a: 0.36146  b:-0.35717

 -0.21669 = (-0.27380 + -0.15958)/2.0
 sum -  nocc_ = 0.00237507
 On Iteration in Bisection 4
 a: 0.00238  b:-0.35717

 -0.24524 = (-0.27380 + -0.21669)/2.0
 sum -  nocc_ = -0.18182048
 On Iteration in Bisection 5
 a: -0.18182  b:-0.35717

 -0.23097 = (-0.24524 + -0.21669)/2.0
 sum -  nocc_ = -0.09026530
 On Iteration in Bisection 6
 a: -0.09027  b:-0.18182

 -0.22383 = (-0.23097 + -0.21669)/2.0
 sum -  nocc_ = -0.04401098
 On Iteration in Bisection 7
 a: -0.04401  b:-0.09027

 -0.22026 = (-0.22383 + -0.21669)/2.0
 sum -  nocc_ = -0.02082574
 On Iteration in Bisection 8
 a: -0.02083  b:-0.04401

 -0.21847 = (-0.22026 + -0.21669)/2.0
 sum -  nocc_ = -0.00922620
 On Iteration in Bisection 9
 a: -0.00923  b:-0.02083

 -0.21758 = (-0.21847 + -0.21669)/2.0
 sum -  nocc_ = -0.00342564
 On Iteration in Bisection 10
 a: -0.00343  b:-0.00923

 -0.21713 = (-0.21758 + -0.21669)/2.0
 sum -  nocc_ = -0.00052529
 On Iteration in Bisection 11
 a: -0.00053  b:-0.00343

 -0.21691 = (-0.21713 + -0.21669)/2.0
 sum -  nocc_ = 0.00092489
 On Iteration in Bisection 12
 a: 0.00092  b:-0.00053

 -0.21702 = (-0.21713 + -0.21691)/2.0
 sum -  nocc_ = 0.00019980
 On Iteration in Bisection 13
 a: 0.00020  b:-0.00053

 -0.21708 = (-0.21713 + -0.21702)/2.0
 sum -  nocc_ = -0.00016274
 On Iteration in Bisection 14
 a: -0.00016  b:-0.00053

 -0.21705 = (-0.21708 + -0.21702)/2.0
 sum -  nocc_ = 0.00001853
 On Iteration in Bisection 15
 a: 0.00002  b:-0.00016

 -0.21706 = (-0.21708 + -0.21705)/2.0
 sum -  nocc_ = -0.00007211
 On Iteration in Bisection 16
 a: -0.00007  b:-0.00016

 -0.21706 = (-0.21706 + -0.21705)/2.0
 sum -  nocc_ = -0.00002679
 On Iteration in Bisection 17
 a: -0.00003  b:-0.00007

 -0.21705 = (-0.21706 + -0.21705)/2.0
 sum -  nocc_ = -0.00000413
 On Iteration in Bisection 18
 a: -0.00000  b:-0.00003

 -0.21705 = (-0.21705 + -0.21705)/2.0
 sum -  nocc_ = 0.00000720
 On Iteration in Bisection 19
 a: 0.00001  b:-0.00000

 -0.21705 = (-0.21705 + -0.21705)/2.0
 sum -  nocc_ = 0.00000154
 On Iteration in Bisection 20
 a: 0.00000  b:-0.00000

 -0.21705 = (-0.21705 + -0.21705)/2.0
 sum -  nocc_ = -0.00000130
 On Iteration in Bisection 21
 a: -0.00000  b:-0.00000

 -0.21705 = (-0.21705 + -0.21705)/2.0
 sum -  nocc_ = 0.00000012
 On Iteration in Bisection 22
 a: 0.00000  b:-0.00000

 -0.21705 = (-0.21705 + -0.21705)/2.0
 sum -  nocc_ = -0.00000059
 On Iteration in Bisection 23
 a: -0.00000  b:-0.00000

 -0.21705 = (-0.21705 + -0.21705)/2.0
 sum -  nocc_ = -0.00000023
 On Iteration in Bisection 24
 a: -0.00000  b:-0.00000

 -0.21705 = (-0.21705 + -0.21705)/2.0
 sum -  nocc_ = -0.00000006
 On Iteration in Bisection 25
 a: -0.00000  b:-0.00000

 -0.21705 = (-0.21705 + -0.21705)/2.0
 sum -  nocc_ = 0.00000003
 On Iteration in Bisection 26
 a: 0.00000  b:-0.00000

 -0.21705 = (-0.21705 + -0.21705)/2.0
 sum -  nocc_ = -0.00000001
 On Iteration in Bisection 27
 a: -0.00000  b:-0.00000

 -0.21705 = (-0.21705 + -0.21705)/2.0
 sum -  nocc_ = 0.00000001
 ef = -0.21705 sum = 1.00000 

 Iter: 8  T:    20000.000  val:-0.217054  sumni 0.00000
 ne = 1.0000

 iter:9  failiter:9  energy:     -0.918735690776  total:     -0.736260791262  error:     -0.000037059156
 In Bisection function HOMO = -0.274  LUMO =  1.538

 0.63180 = (-0.27390 + 1.53750)/2.0
 sum -  nocc_ = 1.95050801
 On Iteration in Bisection 0
 a: 1.95051  b:-0.35652

 0.17895 = (-0.27390 + 0.63180)/2.0
 sum -  nocc_ = 0.99661580
 On Iteration in Bisection 1
 a: 0.99662  b:-0.35652

 -0.04748 = (-0.27390 + 0.17895)/2.0
 sum -  nocc_ = 0.82955007
 On Iteration in Bisection 2
 a: 0.82955  b:-0.35652

 -0.16069 = (-0.27390 + -0.04748)/2.0
 sum -  nocc_ = 0.35685924
 On Iteration in Bisection 3
 a: 0.35686  b:-0.35652

 -0.21730 = (-0.27390 + -0.16069)/2.0
 sum -  nocc_ = 0.00018296
 On Iteration in Bisection 4
 a: 0.00018  b:-0.35652

 -0.24560 = (-0.27390 + -0.21730)/2.0
 sum -  nocc_ = -0.18255755
 On Iteration in Bisection 5
 a: -0.18256  b:-0.35652

 -0.23145 = (-0.24560 + -0.21730)/2.0
 sum -  nocc_ = -0.09173209
 On Iteration in Bisection 6
 a: -0.09173  b:-0.18256

 -0.22437 = (-0.23145 + -0.21730)/2.0
 sum -  nocc_ = -0.04584235
 On Iteration in Bisection 7
 a: -0.04584  b:-0.09173

 -0.22084 = (-0.22437 + -0.21730)/2.0
 sum -  nocc_ = -0.02283813
 On Iteration in Bisection 8
 a: -0.02284  b:-0.04584

 -0.21907 = (-0.22084 + -0.21730)/2.0
 sum -  nocc_ = -0.01132863
 On Iteration in Bisection 9
 a: -0.01133  b:-0.02284

 -0.21818 = (-0.21907 + -0.21730)/2.0
 sum -  nocc_ = -0.00557296
 On Iteration in Bisection 10
 a: -0.00557  b:-0.01133

 -0.21774 = (-0.21818 + -0.21730)/2.0
 sum -  nocc_ = -0.00269501
 On Iteration in Bisection 11
 a: -0.00270  b:-0.00557

 -0.21752 = (-0.21774 + -0.21730)/2.0
 sum -  nocc_ = -0.00125603
 On Iteration in Bisection 12
 a: -0.00126  b:-0.00270

 -0.21741 = (-0.21752 + -0.21730)/2.0
 sum -  nocc_ = -0.00053653
 On Iteration in Bisection 13
 a: -0.00054  b:-0.00126

 -0.21735 = (-0.21741 + -0.21730)/2.0
 sum -  nocc_ = -0.00017678
 On Iteration in Bisection 14
 a: -0.00018  b:-0.00054

 -0.21733 = (-0.21735 + -0.21730)/2.0
 sum -  nocc_ = 0.00000309
 On Iteration in Bisection 15
 a: 0.00000  b:-0.00018

 -0.21734 = (-0.21735 + -0.21733)/2.0
 sum -  nocc_ = -0.00008685
 On Iteration in Bisection 16
 a: -0.00009  b:-0.00018

 -0.21733 = (-0.21734 + -0.21733)/2.0
 sum -  nocc_ = -0.00004188
 On Iteration in Bisection 17
 a: -0.00004  b:-0.00009

 -0.21733 = (-0.21733 + -0.21733)/2.0
 sum -  nocc_ = -0.00001939
 On Iteration in Bisection 18
 a: -0.00002  b:-0.00004

 -0.21733 = (-0.21733 + -0.21733)/2.0
 sum -  nocc_ = -0.00000815
 On Iteration in Bisection 19
 a: -0.00001  b:-0.00002

 -0.21733 = (-0.21733 + -0.21733)/2.0
 sum -  nocc_ = -0.00000253
 On Iteration in Bisection 20
 a: -0.00000  b:-0.00001

 -0.21733 = (-0.21733 + -0.21733)/2.0
 sum -  nocc_ = 0.00000028
 On Iteration in Bisection 21
 a: 0.00000  b:-0.00000

 -0.21733 = (-0.21733 + -0.21733)/2.0
 sum -  nocc_ = -0.00000113
 On Iteration in Bisection 22
 a: -0.00000  b:-0.00000

 -0.21733 = (-0.21733 + -0.21733)/2.0
 sum -  nocc_ = -0.00000042
 On Iteration in Bisection 23
 a: -0.00000  b:-0.00000

 -0.21733 = (-0.21733 + -0.21733)/2.0
 sum -  nocc_ = -0.00000007
 On Iteration in Bisection 24
 a: -0.00000  b:-0.00000

 -0.21733 = (-0.21733 + -0.21733)/2.0
 sum -  nocc_ = 0.00000010
 On Iteration in Bisection 25
 a: 0.00000  b:-0.00000

 -0.21733 = (-0.21733 + -0.21733)/2.0
 sum -  nocc_ = 0.00000002
 On Iteration in Bisection 26
 a: 0.00000  b:-0.00000

 -0.21733 = (-0.21733 + -0.21733)/2.0
 sum -  nocc_ = -0.00000003
 On Iteration in Bisection 27
 a: -0.00000  b:-0.00000

 -0.21733 = (-0.21733 + -0.21733)/2.0
 sum -  nocc_ = -0.00000001
 ef = -0.21733 sum = 1.00000 

 Iter: 9  T:    20000.000  val:-0.217326  sumni 0.00000
 ne = 1.0000

 iter:10  failiter:10  energy:     -0.918900330222  total:     -0.736425430708  error:     -0.000164639446
 In Bisection function HOMO = -0.274  LUMO =  1.525

 0.62528 = (-0.27407 + 1.52463)/2.0
 sum -  nocc_ = 1.90706931
 On Iteration in Bisection 0
 a: 1.90707  b:-0.35648

 0.17560 = (-0.27407 + 0.62528)/2.0
 sum -  nocc_ = 0.99610523
 On Iteration in Bisection 1
 a: 0.99611  b:-0.35648

 -0.04923 = (-0.27407 + 0.17560)/2.0
 sum -  nocc_ = 0.82581208
 On Iteration in Bisection 2
 a: 0.82581  b:-0.35648

 -0.16165 = (-0.27407 + -0.04923)/2.0
 sum -  nocc_ = 0.35226812
 On Iteration in Bisection 3
 a: 0.35227  b:-0.35648

 -0.21786 = (-0.27407 + -0.16165)/2.0
 sum -  nocc_ = -0.00232621
 On Iteration in Bisection 4
 a: -0.00233  b:-0.35648

 -0.18976 = (-0.21786 + -0.16165)/2.0
 sum -  nocc_ = 0.17921627
 On Iteration in Bisection 5
 a: 0.17922  b:-0.00233

 -0.20381 = (-0.21786 + -0.18976)/2.0
 sum -  nocc_ = 0.08896583
 On Iteration in Bisection 6
 a: 0.08897  b:-0.00233

 -0.21084 = (-0.21786 + -0.20381)/2.0
 sum -  nocc_ = 0.04338302
 On Iteration in Bisection 7
 a: 0.04338  b:-0.00233

 -0.21435 = (-0.21786 + -0.21084)/2.0
 sum -  nocc_ = 0.02053587
 On Iteration in Bisection 8
 a: 0.02054  b:-0.00233

 -0.21610 = (-0.21786 + -0.21435)/2.0
 sum -  nocc_ = 0.00910566
 On Iteration in Bisection 9
 a: 0.00911  b:-0.00233

 -0.21698 = (-0.21786 + -0.21610)/2.0
 sum -  nocc_ = 0.00338980
 On Iteration in Bisection 10
 a: 0.00339  b:-0.00233

 -0.21742 = (-0.21786 + -0.21698)/2.0
 sum -  nocc_ = 0.00053180
 On Iteration in Bisection 11
 a: 0.00053  b:-0.00233

 -0.21764 = (-0.21786 + -0.21742)/2.0
 sum -  nocc_ = -0.00089721
 On Iteration in Bisection 12
 a: -0.00090  b:-0.00233

 -0.21753 = (-0.21764 + -0.21742)/2.0
 sum -  nocc_ = -0.00018271
 On Iteration in Bisection 13
 a: -0.00018  b:-0.00090

 -0.21748 = (-0.21753 + -0.21742)/2.0
 sum -  nocc_ = 0.00017454
 On Iteration in Bisection 14
 a: 0.00017  b:-0.00018

 -0.21750 = (-0.21753 + -0.21748)/2.0
 sum -  nocc_ = -0.00000408
 On Iteration in Bisection 15
 a: -0.00000  b:-0.00018

 -0.21749 = (-0.21750 + -0.21748)/2.0
 sum -  nocc_ = 0.00008523
 On Iteration in Bisection 16
 a: 0.00009  b:-0.00000

 -0.21750 = (-0.21750 + -0.21749)/2.0
 sum -  nocc_ = 0.00004058
 On Iteration in Bisection 17
 a: 0.00004  b:-0.00000

 -0.21750 = (-0.21750 + -0.21750)/2.0
 sum -  nocc_ = 0.00001825
 On Iteration in Bisection 18
 a: 0.00002  b:-0.00000

 -0.21750 = (-0.21750 + -0.21750)/2.0
 sum -  nocc_ = 0.00000708
 On Iteration in Bisection 19
 a: 0.00001  b:-0.00000

 -0.21750 = (-0.21750 + -0.21750)/2.0
 sum -  nocc_ = 0.00000150
 On Iteration in Bisection 20
 a: 0.00000  b:-0.00000

 -0.21750 = (-0.21750 + -0.21750)/2.0
 sum -  nocc_ = -0.00000129
 On Iteration in Bisection 21
 a: -0.00000  b:-0.00000

 -0.21750 = (-0.21750 + -0.21750)/2.0
 sum -  nocc_ = 0.00000011
 On Iteration in Bisection 22
 a: 0.00000  b:-0.00000

 -0.21750 = (-0.21750 + -0.21750)/2.0
 sum -  nocc_ = -0.00000059
 On Iteration in Bisection 23
 a: -0.00000  b:-0.00000

 -0.21750 = (-0.21750 + -0.21750)/2.0
 sum -  nocc_ = -0.00000024
 On Iteration in Bisection 24
 a: -0.00000  b:-0.00000

 -0.21750 = (-0.21750 + -0.21750)/2.0
 sum -  nocc_ = -0.00000007
 On Iteration in Bisection 25
 a: -0.00000  b:-0.00000

 -0.21750 = (-0.21750 + -0.21750)/2.0
 sum -  nocc_ = 0.00000002
 On Iteration in Bisection 26
 a: 0.00000  b:-0.00000

 -0.21750 = (-0.21750 + -0.21750)/2.0
 sum -  nocc_ = -0.00000003
 On Iteration in Bisection 27
 a: -0.00000  b:-0.00000

 -0.21750 = (-0.21750 + -0.21750)/2.0
 sum -  nocc_ = -0.00000000
 ef = -0.21750 sum = 1.00000 

 Iter: 10  T:    20000.000  val:-0.217504  sumni 0.00000
 ne = 1.0000

 iter:11  failiter:11  energy:     -0.919090432756  total:     -0.736615533242  error:     -0.000190102534
 In Bisection function HOMO = -0.274  LUMO =  1.514

 0.62010 = (-0.27423 + 1.51444)/2.0
 sum -  nocc_ = 1.87076152
 On Iteration in Bisection 0
 a: 1.87076  b:-0.35667

 0.17293 = (-0.27423 + 0.62010)/2.0
 sum -  nocc_ = 0.99571530
 On Iteration in Bisection 1
 a: 0.99572  b:-0.35667

 -0.05065 = (-0.27423 + 0.17293)/2.0
 sum -  nocc_ = 0.82258249
 On Iteration in Bisection 2
 a: 0.82258  b:-0.35667

 -0.16244 = (-0.27423 + -0.05065)/2.0
 sum -  nocc_ = 0.34818038
 On Iteration in Bisection 3
 a: 0.34818  b:-0.35667

 -0.21834 = (-0.27423 + -0.16244)/2.0
 sum -  nocc_ = -0.00467974
 On Iteration in Bisection 4
 a: -0.00468  b:-0.35667

 -0.19039 = (-0.21834 + -0.16244)/2.0
 sum -  nocc_ = 0.17586244
 On Iteration in Bisection 5
 a: 0.17586  b:-0.00468

 -0.20436 = (-0.21834 + -0.19039)/2.0
 sum -  nocc_ = 0.08608878
 On Iteration in Bisection 6
 a: 0.08609  b:-0.00468

 -0.21135 = (-0.21834 + -0.20436)/2.0
 sum -  nocc_ = 0.04076315
 On Iteration in Bisection 7
 a: 0.04076  b:-0.00468

 -0.21484 = (-0.21834 + -0.21135)/2.0
 sum -  nocc_ = 0.01804819
 On Iteration in Bisection 8
 a: 0.01805  b:-0.00468

 -0.21659 = (-0.21834 + -0.21484)/2.0
 sum -  nocc_ = 0.00668482
 On Iteration in Bisection 9
 a: 0.00668  b:-0.00468

 -0.21746 = (-0.21834 + -0.21659)/2.0
 sum -  nocc_ = 0.00100257
 On Iteration in Bisection 10
 a: 0.00100  b:-0.00468

 -0.21790 = (-0.21834 + -0.21746)/2.0
 sum -  nocc_ = -0.00183859
 On Iteration in Bisection 11
 a: -0.00184  b:-0.00468

 -0.21768 = (-0.21790 + -0.21746)/2.0
 sum -  nocc_ = -0.00041801
 On Iteration in Bisection 12
 a: -0.00042  b:-0.00184

 -0.21757 = (-0.21768 + -0.21746)/2.0
 sum -  nocc_ = 0.00029228
 On Iteration in Bisection 13
 a: 0.00029  b:-0.00042

 -0.21763 = (-0.21768 + -0.21757)/2.0
 sum -  nocc_ = -0.00006287
 On Iteration in Bisection 14
 a: -0.00006  b:-0.00042

 -0.21760 = (-0.21763 + -0.21757)/2.0
 sum -  nocc_ = 0.00011470
 On Iteration in Bisection 15
 a: 0.00011  b:-0.00006

 -0.21762 = (-0.21763 + -0.21760)/2.0
 sum -  nocc_ = 0.00002592
 On Iteration in Bisection 16
 a: 0.00003  b:-0.00006

 -0.21762 = (-0.21763 + -0.21762)/2.0
 sum -  nocc_ = -0.00001848
 On Iteration in Bisection 17
 a: -0.00002  b:-0.00006

 -0.21762 = (-0.21762 + -0.21762)/2.0
 sum -  nocc_ = 0.00000372
 On Iteration in Bisection 18
 a: 0.00000  b:-0.00002

 -0.21762 = (-0.21762 + -0.21762)/2.0
 sum -  nocc_ = -0.00000738
 On Iteration in Bisection 19
 a: -0.00001  b:-0.00002

 -0.21762 = (-0.21762 + -0.21762)/2.0
 sum -  nocc_ = -0.00000183
 On Iteration in Bisection 20
 a: -0.00000  b:-0.00001

 -0.21762 = (-0.21762 + -0.21762)/2.0
 sum -  nocc_ = 0.00000095
 On Iteration in Bisection 21
 a: 0.00000  b:-0.00000

 -0.21762 = (-0.21762 + -0.21762)/2.0
 sum -  nocc_ = -0.00000044
 On Iteration in Bisection 22
 a: -0.00000  b:-0.00000

 -0.21762 = (-0.21762 + -0.21762)/2.0
 sum -  nocc_ = 0.00000025
 On Iteration in Bisection 23
 a: 0.00000  b:-0.00000

 -0.21762 = (-0.21762 + -0.21762)/2.0
 sum -  nocc_ = -0.00000009
 On Iteration in Bisection 24
 a: -0.00000  b:-0.00000

 -0.21762 = (-0.21762 + -0.21762)/2.0
 sum -  nocc_ = 0.00000008
 On Iteration in Bisection 25
 a: 0.00000  b:-0.00000

 -0.21762 = (-0.21762 + -0.21762)/2.0
 sum -  nocc_ = -0.00000001
 ef = -0.21762 sum = 1.00000 

 Iter: 11  T:    20000.000  val:-0.217619  sumni 0.00000
 ne = 1.0000

 iter:12  failiter:12  energy:     -0.919261853777  total:     -0.736786954263  error:     -0.000171421020
 In Bisection function HOMO = -0.274  LUMO =  1.506

 0.61601 = (-0.27437 + 1.50640)/2.0
 sum -  nocc_ = 1.84143911
 On Iteration in Bisection 0
 a: 1.84144  b:-0.35691

 0.17082 = (-0.27437 + 0.61601)/2.0
 sum -  nocc_ = 0.99541534
 On Iteration in Bisection 1
 a: 0.99542  b:-0.35691

 -0.05178 = (-0.27437 + 0.17082)/2.0
 sum -  nocc_ = 0.81990055
 On Iteration in Bisection 2
 a: 0.81990  b:-0.35691

 -0.16307 = (-0.27437 + -0.05178)/2.0
 sum -  nocc_ = 0.34475499
 On Iteration in Bisection 3
 a: 0.34475  b:-0.35691

 -0.21872 = (-0.27437 + -0.16307)/2.0
 sum -  nocc_ = -0.00669578
 On Iteration in Bisection 4
 a: -0.00670  b:-0.35691

 -0.19090 = (-0.21872 + -0.16307)/2.0
 sum -  nocc_ = 0.17303101
 On Iteration in Bisection 5
 a: 0.17303  b:-0.00670

 -0.20481 = (-0.21872 + -0.19090)/2.0
 sum -  nocc_ = 0.08364554
 On Iteration in Bisection 6
 a: 0.08365  b:-0.00670

 -0.21177 = (-0.21872 + -0.20481)/2.0
 sum -  nocc_ = 0.03852968
 On Iteration in Bisection 7
 a: 0.03853  b:-0.00670

 -0.21524 = (-0.21872 + -0.21177)/2.0
 sum -  nocc_ = 0.01592260
 On Iteration in Bisection 8
 a: 0.01592  b:-0.00670

 -0.21698 = (-0.21872 + -0.21524)/2.0
 sum -  nocc_ = 0.00461382
 On Iteration in Bisection 9
 a: 0.00461  b:-0.00670

 -0.21785 = (-0.21872 + -0.21698)/2.0
 sum -  nocc_ = -0.00104100
 On Iteration in Bisection 10
 a: -0.00104  b:-0.00670

 -0.21742 = (-0.21785 + -0.21698)/2.0
 sum -  nocc_ = 0.00178642
 On Iteration in Bisection 11
 a: 0.00179  b:-0.00104

 -0.21764 = (-0.21785 + -0.21742)/2.0
 sum -  nocc_ = 0.00037271
 On Iteration in Bisection 12
 a: 0.00037  b:-0.00104

 -0.21774 = (-0.21785 + -0.21764)/2.0
 sum -  nocc_ = -0.00033415
 On Iteration in Bisection 13
 a: -0.00033  b:-0.00104

 -0.21769 = (-0.21774 + -0.21764)/2.0
 sum -  nocc_ = 0.00001928
[...]
 On Iteration in Bisection 22
 a: -0.00000  b:-0.00000

 -0.21782 = (-0.21782 + -0.21782)/2.0
 sum -  nocc_ = 0.00000036
 On Iteration in Bisection 23
 a: 0.00000  b:-0.00000

 -0.21782 = (-0.21782 + -0.21782)/2.0
 sum -  nocc_ = 0.00000002
 On Iteration in Bisection 24
 a: 0.00000  b:-0.00000

 -0.21782 = (-0.21782 + -0.21782)/2.0
 sum -  nocc_ = -0.00000015
 On Iteration in Bisection 25
 a: -0.00000  b:-0.00000

 -0.21782 = (-0.21782 + -0.21782)/2.0
 sum -  nocc_ = -0.00000006
 On Iteration in Bisection 26
 a: -0.00000  b:-0.00000

 -0.21782 = (-0.21782 + -0.21782)/2.0
 sum -  nocc_ = -0.00000002
 On Iteration in Bisection 27
 a: -0.00000  b:-0.00000

 -0.21782 = (-0.21782 + -0.21782)/2.0
 sum -  nocc_ = -0.00000000
 ef = -0.21782 sum = 1.00000 

 Iter: 53  T:    20000.000  val:-0.217824  sumni 0.00000
 ne = 1.0000

 iter:54  failiter:54  energy:     -0.919749537831  total:     -0.737274638317  error:      0.000000000009
 In Bisection function HOMO = -0.275  LUMO =  1.481

 0.60316 = (-0.27473 + 1.48106)/2.0
 sum -  nocc_ = 1.74983437
 On Iteration in Bisection 0
 a: 1.74983  b:-0.35780

 0.16421 = (-0.27473 + 0.60316)/2.0
 sum -  nocc_ = 0.99451143
 On Iteration in Bisection 1
 a: 0.99451  b:-0.35780

 -0.05526 = (-0.27473 + 0.16421)/2.0
 sum -  nocc_ = 0.81107124
 On Iteration in Bisection 2
 a: 0.81107  b:-0.35780

 -0.16500 = (-0.27473 + -0.05526)/2.0
 sum -  nocc_ = 0.33365464
 On Iteration in Bisection 3
 a: 0.33365  b:-0.35780

 -0.21986 = (-0.27473 + -0.16500)/2.0
 sum -  nocc_ = -0.01325264
 On Iteration in Bisection 4
 a: -0.01325  b:-0.35780

 -0.19243 = (-0.21986 + -0.16500)/2.0
 sum -  nocc_ = 0.16385508
 On Iteration in Bisection 5
 a: 0.16386  b:-0.01325

 -0.20615 = (-0.21986 + -0.19243)/2.0
 sum -  nocc_ = 0.07571824
 On Iteration in Bisection 6
 a: 0.07572  b:-0.01325

 -0.21301 = (-0.21986 + -0.20615)/2.0
 sum -  nocc_ = 0.03127569
 On Iteration in Bisection 7
 a: 0.03128  b:-0.01325

 -0.21644 = (-0.21986 + -0.21301)/2.0
 sum -  nocc_ = 0.00901461
 On Iteration in Bisection 8
 a: 0.00901  b:-0.01325

 -0.21815 = (-0.21986 + -0.21644)/2.0
 sum -  nocc_ = -0.00211920
 On Iteration in Bisection 9
 a: -0.00212  b:-0.01325

 -0.21729 = (-0.21815 + -0.21644)/2.0
 sum -  nocc_ = 0.00344778
 On Iteration in Bisection 10
 a: 0.00345  b:-0.00212

 -0.21772 = (-0.21815 + -0.21729)/2.0
 sum -  nocc_ = 0.00066429
 On Iteration in Bisection 11
 a: 0.00066  b:-0.00212

 -0.21794 = (-0.21815 + -0.21772)/2.0
 sum -  nocc_ = -0.00072745
 On Iteration in Bisection 12
 a: -0.00073  b:-0.00212

 -0.21783 = (-0.21794 + -0.21772)/2.0
 sum -  nocc_ = -0.00003158
 On Iteration in Bisection 13
 a: -0.00003  b:-0.00073

 -0.21777 = (-0.21783 + -0.21772)/2.0
 sum -  nocc_ = 0.00031636
 On Iteration in Bisection 14
 a: 0.00032  b:-0.00003

 -0.21780 = (-0.21783 + -0.21777)/2.0
 sum -  nocc_ = 0.00014239
 On Iteration in Bisection 15
 a: 0.00014  b:-0.00003

 -0.21782 = (-0.21783 + -0.21780)/2.0
 sum -  nocc_ = 0.00005541
 On Iteration in Bisection 16
 a: 0.00006  b:-0.00003

 -0.21782 = (-0.21783 + -0.21782)/2.0
 sum -  nocc_ = 0.00001191
 On Iteration in Bisection 17
 a: 0.00001  b:-0.00003

 -0.21783 = (-0.21783 + -0.21782)/2.0
 sum -  nocc_ = -0.00000983
 On Iteration in Bisection 18
 a: -0.00001  b:-0.00003

 -0.21782 = (-0.21783 + -0.21782)/2.0
 sum -  nocc_ = 0.00000104
 On Iteration in Bisection 19
 a: 0.00000  b:-0.00001

 -0.21782 = (-0.21783 + -0.21782)/2.0
 sum -  nocc_ = -0.00000440
 On Iteration in Bisection 20
 a: -0.00000  b:-0.00001

 -0.21782 = (-0.21782 + -0.21782)/2.0
 sum -  nocc_ = -0.00000168
 On Iteration in Bisection 21
 a: -0.00000  b:-0.00000

 -0.21782 = (-0.21782 + -0.21782)/2.0
 sum -  nocc_ = -0.00000032
 On Iteration in Bisection 22
 a: -0.00000  b:-0.00000

 -0.21782 = (-0.21782 + -0.21782)/2.0
 sum -  nocc_ = 0.00000036
 On Iteration in Bisection 23
 a: 0.00000  b:-0.00000

 -0.21782 = (-0.21782 + -0.21782)/2.0
 sum -  nocc_ = 0.00000002
 On Iteration in Bisection 24
 a: 0.00000  b:-0.00000

 -0.21782 = (-0.21782 + -0.21782)/2.0
 sum -  nocc_ = -0.00000015
 On Iteration in Bisection 25
 a: -0.00000  b:-0.00000

 -0.21782 = (-0.21782 + -0.21782)/2.0
 sum -  nocc_ = -0.00000006
 On Iteration in Bisection 26
 a: -0.00000  b:-0.00000

 -0.21782 = (-0.21782 + -0.21782)/2.0
 sum -  nocc_ = -0.00000002
 On Iteration in Bisection 27
 a: -0.00000  b:-0.00000

 -0.21782 = (-0.21782 + -0.21782)/2.0
 sum -  nocc_ = -0.00000000
 ef = -0.21782 sum = 1.00000 

 Iter: 54  T:    20000.000  val:-0.217824  sumni 0.00000
 ne = 1.0000

 iter:55  failiter:55  energy:     -0.919749537826  total:     -0.737274638312  error:      0.000000000005
 In Bisection function HOMO = -0.275  LUMO =  1.481

 0.60316 = (-0.27473 + 1.48106)/2.0
 sum -  nocc_ = 1.74983437
 On Iteration in Bisection 0
 a: 1.74983  b:-0.35780

 0.16421 = (-0.27473 + 0.60316)/2.0
 sum -  nocc_ = 0.99451143
 On Iteration in Bisection 1
 a: 0.99451  b:-0.35780

 -0.05526 = (-0.27473 + 0.16421)/2.0
 sum -  nocc_ = 0.81107124
 On Iteration in Bisection 2
 a: 0.81107  b:-0.35780

 -0.16500 = (-0.27473 + -0.05526)/2.0
 sum -  nocc_ = 0.33365464
 On Iteration in Bisection 3
 a: 0.33365  b:-0.35780

 -0.21986 = (-0.27473 + -0.16500)/2.0
 sum -  nocc_ = -0.01325264
 On Iteration in Bisection 4
 a: -0.01325  b:-0.35780

 -0.19243 = (-0.21986 + -0.16500)/2.0
 sum -  nocc_ = 0.16385508
 On Iteration in Bisection 5
 a: 0.16386  b:-0.01325

 -0.20615 = (-0.21986 + -0.19243)/2.0
 sum -  nocc_ = 0.07571824
 On Iteration in Bisection 6
 a: 0.07572  b:-0.01325

 -0.21301 = (-0.21986 + -0.20615)/2.0
 sum -  nocc_ = 0.03127569
 On Iteration in Bisection 7
 a: 0.03128  b:-0.01325

 -0.21644 = (-0.21986 + -0.21301)/2.0
 sum -  nocc_ = 0.00901461
 On Iteration in Bisection 8
 a: 0.00901  b:-0.01325

 -0.21815 = (-0.21986 + -0.21644)/2.0
 sum -  nocc_ = -0.00211920
 On Iteration in Bisection 9
 a: -0.00212  b:-0.01325

 -0.21729 = (-0.21815 + -0.21644)/2.0
 sum -  nocc_ = 0.00344778
 On Iteration in Bisection 10
 a: 0.00345  b:-0.00212

 -0.21772 = (-0.21815 + -0.21729)/2.0
 sum -  nocc_ = 0.00066429
 On Iteration in Bisection 11
 a: 0.00066  b:-0.00212

 -0.21794 = (-0.21815 + -0.21772)/2.0
 sum -  nocc_ = -0.00072745
 On Iteration in Bisection 12
 a: -0.00073  b:-0.00212

 -0.21783 = (-0.21794 + -0.21772)/2.0
 sum -  nocc_ = -0.00003158
 On Iteration in Bisection 13
 a: -0.00003  b:-0.00073

 -0.21777 = (-0.21783 + -0.21772)/2.0
 sum -  nocc_ = 0.00031636
 On Iteration in Bisection 14
 a: 0.00032  b:-0.00003

 -0.21780 = (-0.21783 + -0.21777)/2.0
 sum -  nocc_ = 0.00014239
 On Iteration in Bisection 15
 a: 0.00014  b:-0.00003

 -0.21782 = (-0.21783 + -0.21780)/2.0
 sum -  nocc_ = 0.00005541
 On Iteration in Bisection 16
 a: 0.00006  b:-0.00003

 -0.21782 = (-0.21783 + -0.21782)/2.0
 sum -  nocc_ = 0.00001191
 On Iteration in Bisection 17
 a: 0.00001  b:-0.00003

 -0.21783 = (-0.21783 + -0.21782)/2.0
 sum -  nocc_ = -0.00000983
 On Iteration in Bisection 18
 a: -0.00001  b:-0.00003

 -0.21782 = (-0.21783 + -0.21782)/2.0
 sum -  nocc_ = 0.00000104
 On Iteration in Bisection 19
 a: 0.00000  b:-0.00001

 -0.21782 = (-0.21783 + -0.21782)/2.0
 sum -  nocc_ = -0.00000440
 On Iteration in Bisection 20
 a: -0.00000  b:-0.00001

 -0.21782 = (-0.21782 + -0.21782)/2.0
 sum -  nocc_ = -0.00000168
 On Iteration in Bisection 21
 a: -0.00000  b:-0.00000

 -0.21782 = (-0.21782 + -0.21782)/2.0
 sum -  nocc_ = -0.00000032
 On Iteration in Bisection 22
 a: -0.00000  b:-0.00000

 -0.21782 = (-0.21782 + -0.21782)/2.0
 sum -  nocc_ = 0.00000036
 On Iteration in Bisection 23
 a: 0.00000  b:-0.00000

 -0.21782 = (-0.21782 + -0.21782)/2.0
 sum -  nocc_ = 0.00000002
 On Iteration in Bisection 24
 a: 0.00000  b:-0.00000

 -0.21782 = (-0.21782 + -0.21782)/2.0
 sum -  nocc_ = -0.00000015
 On Iteration in Bisection 25
 a: -0.00000  b:-0.00000

 -0.21782 = (-0.21782 + -0.21782)/2.0
 sum -  nocc_ = -0.00000006
 On Iteration in Bisection 26
 a: -0.00000  b:-0.00000

 -0.21782 = (-0.21782 + -0.21782)/2.0
 sum -  nocc_ = -0.00000002
 On Iteration in Bisection 27
 a: -0.00000  b:-0.00000

 -0.21782 = (-0.21782 + -0.21782)/2.0
 sum -  nocc_ = -0.00000000
 ef = -0.21782 sum = 1.00000 

 Iter: 55  T:    20000.000  val:-0.217824  sumni 0.00000
 ne = 1.0000

 iter:56  failiter:56  energy:     -0.919749537822  total:     -0.737274638309  error:      0.000000000003
 In Bisection function HOMO = -0.275  LUMO =  1.481

 0.60316 = (-0.27473 + 1.48106)/2.0
 sum -  nocc_ = 1.74983437
 On Iteration in Bisection 0
 a: 1.74983  b:-0.35780

 0.16421 = (-0.27473 + 0.60316)/2.0
 sum -  nocc_ = 0.99451143
 On Iteration in Bisection 1
 a: 0.99451  b:-0.35780

 -0.05526 = (-0.27473 + 0.16421)/2.0
 sum -  nocc_ = 0.81107124
 On Iteration in Bisection 2
 a: 0.81107  b:-0.35780

 -0.16500 = (-0.27473 + -0.05526)/2.0
 sum -  nocc_ = 0.33365464
 On Iteration in Bisection 3
 a: 0.33365  b:-0.35780

 -0.21986 = (-0.27473 + -0.16500)/2.0
 sum -  nocc_ = -0.01325264
 On Iteration in Bisection 4
 a: -0.01325  b:-0.35780

 -0.19243 = (-0.21986 + -0.16500)/2.0
 sum -  nocc_ = 0.16385508
 On Iteration in Bisection 5
 a: 0.16386  b:-0.01325

 -0.20615 = (-0.21986 + -0.19243)/2.0
 sum -  nocc_ = 0.07571824
 On Iteration in Bisection 6
 a: 0.07572  b:-0.01325

 -0.21301 = (-0.21986 + -0.20615)/2.0
 sum -  nocc_ = 0.03127569
 On Iteration in Bisection 7
 a: 0.03128  b:-0.01325

 -0.21644 = (-0.21986 + -0.21301)/2.0
 sum -  nocc_ = 0.00901461
 On Iteration in Bisection 8
 a: 0.00901  b:-0.01325

 -0.21815 = (-0.21986 + -0.21644)/2.0
 sum -  nocc_ = -0.00211920
 On Iteration in Bisection 9
 a: -0.00212  b:-0.01325

 -0.21729 = (-0.21815 + -0.21644)/2.0
 sum -  nocc_ = 0.00344778
 On Iteration in Bisection 10
 a: 0.00345  b:-0.00212

 -0.21772 = (-0.21815 + -0.21729)/2.0
 sum -  nocc_ = 0.00066429
 On Iteration in Bisection 11
 a: 0.00066  b:-0.00212

 -0.21794 = (-0.21815 + -0.21772)/2.0
 sum -  nocc_ = -0.00072745
 On Iteration in Bisection 12
 a: -0.00073  b:-0.00212

 -0.21783 = (-0.21794 + -0.21772)/2.0
 sum -  nocc_ = -0.00003158
 On Iteration in Bisection 13
 a: -0.00003  b:-0.00073

 -0.21777 = (-0.21783 + -0.21772)/2.0
 sum -  nocc_ = 0.00031636
 On Iteration in Bisection 14
 a: 0.00032  b:-0.00003

 -0.21780 = (-0.21783 + -0.21777)/2.0
 sum -  nocc_ = 0.00014239
 On Iteration in Bisection 15
 a: 0.00014  b:-0.00003

 -0.21782 = (-0.21783 + -0.21780)/2.0
 sum -  nocc_ = 0.00005541
 On Iteration in Bisection 16
 a: 0.00006  b:-0.00003

 -0.21782 = (-0.21783 + -0.21782)/2.0
 sum -  nocc_ = 0.00001191
 On Iteration in Bisection 17
 a: 0.00001  b:-0.00003

 -0.21783 = (-0.21783 + -0.21782)/2.0
 sum -  nocc_ = -0.00000983
 On Iteration in Bisection 18
 a: -0.00001  b:-0.00003

 -0.21782 = (-0.21783 + -0.21782)/2.0
 sum -  nocc_ = 0.00000104
 On Iteration in Bisection 19
 a: 0.00000  b:-0.00001

 -0.21782 = (-0.21783 + -0.21782)/2.0
 sum -  nocc_ = -0.00000440
 On Iteration in Bisection 20
 a: -0.00000  b:-0.00001

 -0.21782 = (-0.21782 + -0.21782)/2.0
 sum -  nocc_ = -0.00000168
 On Iteration in Bisection 21
 a: -0.00000  b:-0.00000

 -0.21782 = (-0.21782 + -0.21782)/2.0
 sum -  nocc_ = -0.00000032
 On Iteration in Bisection 22
 a: -0.00000  b:-0.00000

 -0.21782 = (-0.21782 + -0.21782)/2.0
 sum -  nocc_ = 0.00000036
 On Iteration in Bisection 23
 a: 0.00000  b:-0.00000

 -0.21782 = (-0.21782 + -0.21782)/2.0
 sum -  nocc_ = 0.00000002
 On Iteration in Bisection 24
 a: 0.00000  b:-0.00000

 -0.21782 = (-0.21782 + -0.21782)/2.0
 sum -  nocc_ = -0.00000015
 On Iteration in Bisection 25
 a: -0.00000  b:-0.00000

 -0.21782 = (-0.21782 + -0.21782)/2.0
 sum -  nocc_ = -0.00000006
 On Iteration in Bisection 26
 a: -0.00000  b:-0.00000

 -0.21782 = (-0.21782 + -0.21782)/2.0
 sum -  nocc_ = -0.00000002
 On Iteration in Bisection 27
 a: -0.00000  b:-0.00000

 -0.21782 = (-0.21782 + -0.21782)/2.0
 sum -  nocc_ = -0.00000000
 ef = -0.21782 sum = 1.00000 

 Iter: 56  T:    20000.000  val:-0.217824  sumni 0.00000
 ne = 1.0000

 iter:57  failiter:57  energy:     -0.919749537820  total:     -0.737274638306  error:      0.000000000002
 In Bisection function HOMO = -0.275  LUMO =  1.481

 0.60316 = (-0.27473 + 1.48106)/2.0
 sum -  nocc_ = 1.74983437
 On Iteration in Bisection 0
 a: 1.74983  b:-0.35780

 0.16421 = (-0.27473 + 0.60316)/2.0
 sum -  nocc_ = 0.99451143
 On Iteration in Bisection 1
 a: 0.99451  b:-0.35780

 -0.05526 = (-0.27473 + 0.16421)/2.0
 sum -  nocc_ = 0.81107124
 On Iteration in Bisection 2
 a: 0.81107  b:-0.35780

 -0.16500 = (-0.27473 + -0.05526)/2.0
 sum -  nocc_ = 0.33365464
 On Iteration in Bisection 3
 a: 0.33365  b:-0.35780

 -0.21986 = (-0.27473 + -0.16500)/2.0
 sum -  nocc_ = -0.01325264
 On Iteration in Bisection 4
 a: -0.01325  b:-0.35780

 -0.19243 = (-0.21986 + -0.16500)/2.0
 sum -  nocc_ = 0.16385508
 On Iteration in Bisection 5
 a: 0.16386  b:-0.01325

 -0.20615 = (-0.21986 + -0.19243)/2.0
 sum -  nocc_ = 0.07571824
 On Iteration in Bisection 6
 a: 0.07572  b:-0.01325

 -0.21301 = (-0.21986 + -0.20615)/2.0
 sum -  nocc_ = 0.03127569
 On Iteration in Bisection 7
 a: 0.03128  b:-0.01325

 -0.21644 = (-0.21986 + -0.21301)/2.0
 sum -  nocc_ = 0.00901461
 On Iteration in Bisection 8
 a: 0.00901  b:-0.01325

 -0.21815 = (-0.21986 + -0.21644)/2.0
 sum -  nocc_ = -0.00211920
 On Iteration in Bisection 9
 a: -0.00212  b:-0.01325

 -0.21729 = (-0.21815 + -0.21644)/2.0
 sum -  nocc_ = 0.00344778
 On Iteration in Bisection 10
 a: 0.00345  b:-0.00212

 -0.21772 = (-0.21815 + -0.21729)/2.0
 sum -  nocc_ = 0.00066429
 On Iteration in Bisection 11
 a: 0.00066  b:-0.00212

 -0.21794 = (-0.21815 + -0.21772)/2.0
 sum -  nocc_ = -0.00072745
 On Iteration in Bisection 12
 a: -0.00073  b:-0.00212

 -0.21783 = (-0.21794 + -0.21772)/2.0
 sum -  nocc_ = -0.00003158
 On Iteration in Bisection 13
 a: -0.00003  b:-0.00073

 -0.21777 = (-0.21783 + -0.21772)/2.0
 sum -  nocc_ = 0.00031636
 On Iteration in Bisection 14
 a: 0.00032  b:-0.00003

 -0.21780 = (-0.21783 + -0.21777)/2.0
 sum -  nocc_ = 0.00014239
 On Iteration in Bisection 15
 a: 0.00014  b:-0.00003

 -0.21782 = (-0.21783 + -0.21780)/2.0
 sum -  nocc_ = 0.00005541
 On Iteration in Bisection 16
 a: 0.00006  b:-0.00003

 -0.21782 = (-0.21783 + -0.21782)/2.0
 sum -  nocc_ = 0.00001191
 On Iteration in Bisection 17
 a: 0.00001  b:-0.00003

 -0.21783 = (-0.21783 + -0.21782)/2.0
 sum -  nocc_ = -0.00000983
 On Iteration in Bisection 18
 a: -0.00001  b:-0.00003

 -0.21782 = (-0.21783 + -0.21782)/2.0
 sum -  nocc_ = 0.00000104
 On Iteration in Bisection 19
 a: 0.00000  b:-0.00001

 -0.21782 = (-0.21783 + -0.21782)/2.0
 sum -  nocc_ = -0.00000440
 On Iteration in Bisection 20
 a: -0.00000  b:-0.00001

 -0.21782 = (-0.21782 + -0.21782)/2.0
 sum -  nocc_ = -0.00000168
 On Iteration in Bisection 21
 a: -0.00000  b:-0.00000

 -0.21782 = (-0.21782 + -0.21782)/2.0
 sum -  nocc_ = -0.00000032
 On Iteration in Bisection 22
 a: -0.00000  b:-0.00000

 -0.21782 = (-0.21782 + -0.21782)/2.0
 sum -  nocc_ = 0.00000036
 On Iteration in Bisection 23
 a: 0.00000  b:-0.00000

 -0.21782 = (-0.21782 + -0.21782)/2.0
 sum -  nocc_ = 0.00000002
 On Iteration in Bisection 24
 a: 0.00000  b:-0.00000

 -0.21782 = (-0.21782 + -0.21782)/2.0
 sum -  nocc_ = -0.00000015
 On Iteration in Bisection 25
 a: -0.00000  b:-0.00000

 -0.21782 = (-0.21782 + -0.21782)/2.0
 sum -  nocc_ = -0.00000006
 On Iteration in Bisection 26
 a: -0.00000  b:-0.00000

 -0.21782 = (-0.21782 + -0.21782)/2.0
 sum -  nocc_ = -0.00000002
 On Iteration in Bisection 27
 a: -0.00000  b:-0.00000

 -0.21782 = (-0.21782 + -0.21782)/2.0
 sum -  nocc_ = -0.00000000
 ef = -0.21782 sum = 1.00000 

 Iter: 57  T:    20000.000  val:-0.217824  sumni 0.00000
 ne = 1.0000

 iter:58  failiter:58  energy:     -0.919749537819  total:     -0.737274638305  error:      0.000000000001
 In Bisection function HOMO = -0.275  LUMO =  1.481

 0.60316 = (-0.27473 + 1.48106)/2.0
 sum -  nocc_ = 1.74983437
 On Iteration in Bisection 0
 a: 1.74983  b:-0.35780

 0.16421 = (-0.27473 + 0.60316)/2.0
 sum -  nocc_ = 0.99451143
 On Iteration in Bisection 1
 a: 0.99451  b:-0.35780

 -0.05526 = (-0.27473 + 0.16421)/2.0
 sum -  nocc_ = 0.81107124
 On Iteration in Bisection 2
 a: 0.81107  b:-0.35780

 -0.16500 = (-0.27473 + -0.05526)/2.0
 sum -  nocc_ = 0.33365464
 On Iteration in Bisection 3
 a: 0.33365  b:-0.35780

 -0.21986 = (-0.27473 + -0.16500)/2.0
 sum -  nocc_ = -0.01325264
 On Iteration in Bisection 4
 a: -0.01325  b:-0.35780

 -0.19243 = (-0.21986 + -0.16500)/2.0
 sum -  nocc_ = 0.16385508
 On Iteration in Bisection 5
 a: 0.16386  b:-0.01325

 -0.20615 = (-0.21986 + -0.19243)/2.0
 sum -  nocc_ = 0.07571824
 On Iteration in Bisection 6
 a: 0.07572  b:-0.01325

 -0.21301 = (-0.21986 + -0.20615)/2.0
 sum -  nocc_ = 0.03127569
 On Iteration in Bisection 7
 a: 0.03128  b:-0.01325

 -0.21644 = (-0.21986 + -0.21301)/2.0
 sum -  nocc_ = 0.00901461
 On Iteration in Bisection 8
 a: 0.00901  b:-0.01325

 -0.21815 = (-0.21986 + -0.21644)/2.0
 sum -  nocc_ = -0.00211920
 On Iteration in Bisection 9
 a: -0.00212  b:-0.01325

 -0.21729 = (-0.21815 + -0.21644)/2.0
 sum -  nocc_ = 0.00344778
 On Iteration in Bisection 10
 a: 0.00345  b:-0.00212

 -0.21772 = (-0.21815 + -0.21729)/2.0
 sum -  nocc_ = 0.00066429
 On Iteration in Bisection 11
 a: 0.00066  b:-0.00212

 -0.21794 = (-0.21815 + -0.21772)/2.0
 sum -  nocc_ = -0.00072745
 On Iteration in Bisection 12
 a: -0.00073  b:-0.00212

 -0.21783 = (-0.21794 + -0.21772)/2.0
 sum -  nocc_ = -0.00003158
 On Iteration in Bisection 13
 a: -0.00003  b:-0.00073

 -0.21777 = (-0.21783 + -0.21772)/2.0
 sum -  nocc_ = 0.00031636
 On Iteration in Bisection 14
 a: 0.00032  b:-0.00003

 -0.21780 = (-0.21783 + -0.21777)/2.0
 sum -  nocc_ = 0.00014239
 On Iteration in Bisection 15
 a: 0.00014  b:-0.00003

 -0.21782 = (-0.21783 + -0.21780)/2.0
 sum -  nocc_ = 0.00005541
 On Iteration in Bisection 16
 a: 0.00006  b:-0.00003

 -0.21782 = (-0.21783 + -0.21782)/2.0
 sum -  nocc_ = 0.00001191
 On Iteration in Bisection 17
 a: 0.00001  b:-0.00003

 -0.21783 = (-0.21783 + -0.21782)/2.0
 sum -  nocc_ = -0.00000983
 On Iteration in Bisection 18
 a: -0.00001  b:-0.00003

 -0.21782 = (-0.21783 + -0.21782)/2.0
 sum -  nocc_ = 0.00000104
 On Iteration in Bisection 19
 a: 0.00000  b:-0.00001

 -0.21782 = (-0.21783 + -0.21782)/2.0
 sum -  nocc_ = -0.00000440
 On Iteration in Bisection 20
 a: -0.00000  b:-0.00001

 -0.21782 = (-0.21782 + -0.21782)/2.0
 sum -  nocc_ = -0.00000168
 On Iteration in Bisection 21
 a: -0.00000  b:-0.00000

 -0.21782 = (-0.21782 + -0.21782)/2.0
 sum -  nocc_ = -0.00000032
 On Iteration in Bisection 22
 a: -0.00000  b:-0.00000

 -0.21782 = (-0.21782 + -0.21782)/2.0
 sum -  nocc_ = 0.00000036
 On Iteration in Bisection 23
 a: 0.00000  b:-0.00000

 -0.21782 = (-0.21782 + -0.21782)/2.0
 sum -  nocc_ = 0.00000002
 On Iteration in Bisection 24
 a: 0.00000  b:-0.00000

 -0.21782 = (-0.21782 + -0.21782)/2.0
 sum -  nocc_ = -0.00000015
 On Iteration in Bisection 25
 a: -0.00000  b:-0.00000

 -0.21782 = (-0.21782 + -0.21782)/2.0
 sum -  nocc_ = -0.00000006
 On Iteration in Bisection 26
 a: -0.00000  b:-0.00000

 -0.21782 = (-0.21782 + -0.21782)/2.0
 sum -  nocc_ = -0.00000002
 On Iteration in Bisection 27
 a: -0.00000  b:-0.00000

 -0.21782 = (-0.21782 + -0.21782)/2.0
 sum -  nocc_ = -0.00000000
 ef = -0.21782 sum = 1.00000 

 Iter: 58  T:    20000.000  val:-0.217824  sumni 0.00000
 ne = 1.0000

 iter:59  failiter:59  energy:     -0.919749537818  total:     -0.737274638304  error:      0.000000000001
 FTHFEnergy =    -0.737275
 FD_dis[0] = 0.71065808 with -0.274733 eig value
 FD_dis[1] = 0.28933868 with -0.160913 eig value
 FD_dis[2] = 0.00000254 with 0.598191 eig value
 FD_dis[3] = 0.00000070 with 0.679610 eig value
 FD_dis[4] = 0.00000000 with 1.466046 eig value
 FD_dis[5] = 0.00000000 with 1.466046 eig value
 FD_dis[6] = 0.00000000 with 1.467423 eig value
 FD_dis[7] = 0.00000000 with 1.467423 eig value
 FD_dis[8] = 0.00000000 with 1.468178 eig value
 FD_dis[9] = 0.00000000 with 1.481058 eig value
*** PSI4 exiting successfully. Buy a developer a beer!
