    -----------------------------------------------------------------------
          PSI4: An Open-Source Ab Initio Electronic Structure Package
                              PSI 4.0 Driver

               Git: Rev {master} 556e8139d3cfa1f96ccffe2cdf22cc56a185d2b2

    J. M. Turney, A. C. Simmonett, R. M. Parrish, E. G. Hohenstein,
    F. A. Evangelista, J. T. Fermann, B. J. Mintz, L. A. Burns, J. J. Wilke,
    M. L. Abrams, N. J. Russ, M. L. Leininger, C. L. Janssen, E. T. Seidl,
    W. D. Allen, H. F. Schaefer, R. A. King, E. F. Valeev, C. D. Sherrill,
    and T. D. Crawford, WIREs Comput. Mol. Sci. 2, 556-565 (2012)
    (doi: 10.1002/wcms.93)

                         Additional Contributions by
    A. E. DePrince, M. Saitow, U. Bozkaya, A. Yu. Sokolov
    -----------------------------------------------------------------------

    Process ID:  28044
    PSI4DATADIR: /Users/kevinhannon/Programs/psi4cmake/psi4/lib
    Memory level set to 256.000 MB

  ==> Input File <==

--------------------------------------------------------------------------

# PYTHONPATH must include directory above plugin directory.
#     Define either externally or here, then import plugin.
sys.path.insert(0, './..')
import scf

molecule {
0 1
C 
C 1 1.25
symmetry c1
units angstrom
}


set {
  basis cc-pvdz
  reference rhf
  scf_type  pk
}

set scf {
  print 1
  DO_FTHF true
  MAX_ITER 200
  MAX_TEMP 500
  TEMP_INCREMENT 10
}
energy('rhf')
energy('scf')

scf.exampleFN()

--------------------------------------------------------------------------

*** tstart() called on Kevins-MacBook-Pro.local
*** at Thu Feb 26 10:30:47 2015

/Users/kevinhannon/Programs/Quantum_Programs/Quantum-Programs/GS/scf/scf.so loaded.

*** tstart() called on Kevins-MacBook-Pro.local
*** at Thu Feb 26 10:30:47 2015


         ---------------------------------------------------------
                                   SCF
            by Justin Turney, Rob Parrish, and Andy Simmonett
                              RHF Reference
                        1 Threads,    256 MiB Core
         ---------------------------------------------------------

  ==> Geometry <==

    Molecular point group: c1
    Full point group: D_inf_h

    Geometry (in Angstrom), charge = 0, multiplicity = 1:

       Center              X                  Y                   Z       
    ------------   -----------------  -----------------  -----------------
           C          0.000000000000     0.000000000000    -0.625000000000
           C          0.000000000000     0.000000000000     0.625000000000

  Running in c1 symmetry.

  Rotational constants: A = ************  B =      1.79815  C =      1.79815 [cm^-1]
  Rotational constants: A = ************  B =  53907.09387  C =  53907.09387 [MHz]
  Nuclear repulsion =   15.240303607392002

  Charge       = 0
  Multiplicity = 1
  Electrons    = 12
  Nalpha       = 6
  Nbeta        = 6

  ==> Algorithm <==

  SCF Algorithm Type is PK.
  DIIS enabled.
  MOM disabled.
  Fractional occupation disabled.
  Guess Type is CORE.
  Energy threshold   = 1.00e-06
  Density threshold  = 1.00e-06
  Integral threshold = 0.00e+00

  ==> Primary Basis <==

  Basis Set: CC-PVDZ
    Number of shells: 12
    Number of basis function: 28
    Number of Cartesian functions: 30
    Spherical Harmonics?: true
    Max angular momentum: 2

  ==> Pre-Iterations <==

   -------------------------------------------------------
    Irrep   Nso     Nmo     Nalpha   Nbeta   Ndocc  Nsocc
   -------------------------------------------------------
     A         28      28       0       0       0       0
   -------------------------------------------------------
    Total      28      28       6       6       6       0
   -------------------------------------------------------

  Starting with a DF guess...

 OEINTS: Overlap, kinetic, potential, dipole, and quadrupole integrals
         stored in file 35.

  ==> Integral Setup <==

  ==> DFJK: Density-Fitted J/K Matrices <==

    J tasked:                  Yes
    K tasked:                  Yes
    wK tasked:                  No
    OpenMP threads:              1
    Integrals threads:           1
    Memory (MB):               183
    Algorithm:                Core
    Integral Cache:           NONE
    Schwarz Cutoff:          1E-12
    Fitting Condition:       1E-12

   => Auxiliary Basis Set <=

  Basis Set: 
    Number of shells: 48
    Number of basis function: 140
    Number of Cartesian functions: 162
    Spherical Harmonics?: true
    Max angular momentum: 3

  Minimum eigenvalue in the overlap matrix is 5.1456757631E-03.
  Using Symmetric Orthogonalization.
  SCF Guess: Core (One-Electron) Hamiltonian.

  ==> Iterations <==

                           Total Energy        Delta E     RMS |[F,P]|

   @DF-RHF iter   1:   -69.63545722795115   -6.96355e+01   7.14954e-02 
   @DF-RHF iter   2:   -73.91309198676876   -4.27763e+00   5.20870e-02 DIIS
   @DF-RHF iter   3:   -75.35785697146912   -1.44476e+00   6.76775e-03 DIIS
   @DF-RHF iter   4:   -75.38495473060814   -2.70978e-02   1.45648e-03 DIIS
   @DF-RHF iter   5:   -75.38685890606061   -1.90418e-03   1.88953e-04 DIIS
   @DF-RHF iter   6:   -75.38689726360354   -3.83575e-05   3.65382e-05 DIIS
   @DF-RHF iter   7:   -75.38689858583757   -1.32223e-06   5.39919e-06 DIIS
   @DF-RHF iter   8:   -75.38689860610897   -2.02714e-08   6.40704e-07 DIIS

  DF guess converged.

  ==> Integral Setup <==

 MINTS: Wrapper to libmints.
   by Justin Turney

   Calculation information:
      Number of atoms:                   2
      Number of AO shells:              12
      Number of SO shells:              12
      Number of primitives:             44
      Number of atomic orbitals:        30
      Number of basis functions:        28

      Number of irreps:                  1
      Integral cutoff                 0.00e+00
      Number of functions per irrep: [  28 ]

 OEINTS: Overlap, kinetic, potential, dipole, and quadrupole integrals
         stored in file 35.

      Computing two-electron integrals...done
      Computed 19336 non-zero two-electron integrals.
        Stored in file 33.

	Batch   1 pq = [       0,     406] index = [             0,82621]
  ==> DiskJK: Disk-Based J/K Matrices <==

    J tasked:                  Yes
    K tasked:                  Yes
    wK tasked:                  No
    Memory (MB):               183
    Schwarz Cutoff:          1E-12

   @RHF iter   9:   -75.38704080328097   -1.42197e-04   1.34156e-05 DIIS
   @RHF iter  10:   -75.38704088704922   -8.37683e-08   2.77089e-06 DIIS
   @RHF iter  11:   -75.38704089127037   -4.22115e-09   7.46832e-07 DIIS

  ==> Post-Iterations <==

    Orbital Energies (a.u.)
    -----------------------

    Doubly Occupied:                                                      

       1A    -11.366673     2A    -11.364534     3A     -1.058944  
       4A     -0.517800     5A     -0.453222     6A     -0.453222  

    Virtual:                                                              

       7A     -0.106437     8A      0.162633     9A      0.162633  
      10A      0.394450    11A      0.593623    12A      0.631158  
      13A      0.631158    14A      0.729637    15A      0.766224  
      16A      0.766224    17A      0.925775    18A      1.218621  
      19A      1.218621    20A      1.247697    21A      1.365385  
      22A      1.365385    23A      1.627170    24A      1.627170  
      25A      2.034914    26A      2.095696    27A      2.095696  
      28A      2.388846  

    Final Occupation by Irrep:
              A 
    DOCC [     6 ]

  Energy converged.

  @RHF Final Energy:   -75.38704089127037

   => Energetics <=

    Nuclear Repulsion Energy =             15.2403036073920024
    One-Electron Energy =                -130.8258716187510515
    Two-Electron Energy =                  40.1985271200886629
    DFT Exchange-Correlation Energy =       0.0000000000000000
    Empirical Dispersion Energy =           0.0000000000000000
    PCM Polarization Energy =               0.0000000000000000
    EFP Energy =                            0.0000000000000000
    Total Energy =                        -75.3870408912703738

    Alert: EFP and PCM quantities not currently incorporated into SCF psivars.

Properties will be evaluated at   0.000000,   0.000000,   0.000000 Bohr
  ==> Properties <==


Properties computed using the SCF density matrix

  Nuclear Dipole Moment: (a.u.)
     X:     0.0000      Y:     0.0000      Z:     0.0000

  Electronic Dipole Moment: (a.u.)
     X:     0.0000      Y:     0.0000      Z:    -0.0000

  Dipole Moment: (a.u.)
     X:     0.0000      Y:     0.0000      Z:    -0.0000     Total:     0.0000

  Dipole Moment: (Debye)
     X:     0.0000      Y:     0.0000      Z:    -0.0000     Total:     0.0000


  Saving occupied orbitals to File 180.

*** tstop() called on Kevins-MacBook-Pro.local at Thu Feb 26 10:30:48 2015
Module time:
	user time   =       0.30 seconds =       0.01 minutes
	system time =       0.02 seconds =       0.00 minutes
	total time  =          1 seconds =       0.02 minutes
Total time:
	user time   =       0.32 seconds =       0.01 minutes
	system time =       0.03 seconds =       0.00 minutes
	total time  =          1 seconds =       0.02 minutes

*** tstart() called on Kevins-MacBook-Pro.local
*** at Thu Feb 26 10:30:48 2015


         ---------------------------------------------------------
                                   SCF
            by Justin Turney, Rob Parrish, and Andy Simmonett
                              RHF Reference
                        1 Threads,    256 MiB Core
         ---------------------------------------------------------

  ==> Geometry <==

    Molecular point group: c1
    Full point group: D_inf_h

    Geometry (in Angstrom), charge = 0, multiplicity = 1:

       Center              X                  Y                   Z       
    ------------   -----------------  -----------------  -----------------
           C          0.000000000000     0.000000000000    -0.625000000000
           C          0.000000000000     0.000000000000     0.625000000000

  Running in c1 symmetry.

  Rotational constants: A = ************  B =      1.79815  C =      1.79815 [cm^-1]
  Rotational constants: A = ************  B =  53907.09387  C =  53907.09387 [MHz]
  Nuclear repulsion =   15.240303607392002

  Charge       = 0
  Multiplicity = 1
  Electrons    = 12
  Nalpha       = 6
  Nbeta        = 6

  ==> Algorithm <==

  SCF Algorithm Type is PK.
  DIIS enabled.
  MOM disabled.
  Fractional occupation disabled.
  Guess Type is CORE.
  Energy threshold   = 1.00e-08
  Density threshold  = 1.00e-08
  Integral threshold = 0.00e+00

  ==> Primary Basis <==

  Basis Set: CC-PVDZ
    Number of shells: 12
    Number of basis function: 28
    Number of Cartesian functions: 30
    Spherical Harmonics?: true
    Max angular momentum: 2

  ==> Pre-Iterations <==

   -------------------------------------------------------
    Irrep   Nso     Nmo     Nalpha   Nbeta   Ndocc  Nsocc
   -------------------------------------------------------
     A         28      28       0       0       0       0
   -------------------------------------------------------
    Total      28      28       6       6       6       0
   -------------------------------------------------------

  Starting with a DF guess...

 OEINTS: Overlap, kinetic, potential, dipole, and quadrupole integrals
         stored in file 35.

  ==> Integral Setup <==

  ==> DFJK: Density-Fitted J/K Matrices <==

    J tasked:                  Yes
    K tasked:                  Yes
    wK tasked:                  No
    OpenMP threads:              1
    Integrals threads:           1
    Memory (MB):               183
    Algorithm:                Core
    Integral Cache:           NONE
    Schwarz Cutoff:          1E-12
    Fitting Condition:       1E-12

   => Auxiliary Basis Set <=

  Basis Set: 
    Number of shells: 48
    Number of basis function: 140
    Number of Cartesian functions: 162
    Spherical Harmonics?: true
    Max angular momentum: 3

  Minimum eigenvalue in the overlap matrix is 5.1456757631E-03.
  Using Symmetric Orthogonalization.
  SCF Guess: Core (One-Electron) Hamiltonian.

  ==> Iterations <==

                           Total Energy        Delta E     RMS |[F,P]|

   @DF-RHF iter   1:   -69.63545722795115   -6.96355e+01   7.14954e-02 
   @DF-RHF iter   2:   -73.91309198676876   -4.27763e+00   5.20870e-02 DIIS
   @DF-RHF iter   3:   -75.35785697146912   -1.44476e+00   6.76775e-03 DIIS
   @DF-RHF iter   4:   -75.38495473060814   -2.70978e-02   1.45648e-03 DIIS
   @DF-RHF iter   5:   -75.38685890606061   -1.90418e-03   1.88953e-04 DIIS
   @DF-RHF iter   6:   -75.38689726360354   -3.83575e-05   3.65382e-05 DIIS
   @DF-RHF iter   7:   -75.38689858583757   -1.32223e-06   5.39919e-06 DIIS
   @DF-RHF iter   8:   -75.38689860610897   -2.02714e-08   6.40704e-07 DIIS
   @DF-RHF iter   9:   -75.38689860639288   -2.83904e-10   6.35157e-08 DIIS
   @DF-RHF iter  10:   -75.38689860639518   -2.30216e-12   7.12985e-09 DIIS

  DF guess converged.

  ==> Integral Setup <==

 MINTS: Wrapper to libmints.
   by Justin Turney

   Calculation information:
      Number of atoms:                   2
      Number of AO shells:              12
      Number of SO shells:              12
      Number of primitives:             44
      Number of atomic orbitals:        30
      Number of basis functions:        28

      Number of irreps:                  1
      Integral cutoff                 0.00e+00
      Number of functions per irrep: [  28 ]

 OEINTS: Overlap, kinetic, potential, dipole, and quadrupole integrals
         stored in file 35.

      Computing two-electron integrals...done
      Computed 19336 non-zero two-electron integrals.
        Stored in file 33.

	Batch   1 pq = [       0,     406] index = [             0,82621]
  ==> DiskJK: Disk-Based J/K Matrices <==

    J tasked:                  Yes
    K tasked:                  Yes
    wK tasked:                  No
    Memory (MB):               183
    Schwarz Cutoff:          1E-12

   @RHF iter  11:   -75.38704080388412   -1.42197e-04   1.33777e-05 DIIS
   @RHF iter  12:   -75.38704088710332   -8.32192e-08   2.75965e-06 DIIS
   @RHF iter  13:   -75.38704089127627   -4.17295e-09   7.41774e-07 DIIS
   @RHF iter  14:   -75.38704089166397   -3.87701e-10   1.46396e-07 DIIS
   @RHF iter  15:   -75.38704089168449   -2.05205e-11   2.57962e-08 DIIS
   @RHF iter  16:   -75.38704089168500   -5.11591e-13   5.23148e-09 DIIS

  ==> Post-Iterations <==

    Orbital Energies (a.u.)
    -----------------------

    Doubly Occupied:                                                      

       1A    -11.366670     2A    -11.364530     3A     -1.058942  
       4A     -0.517799     5A     -0.453222     6A     -0.453222  

    Virtual:                                                              

       7A     -0.106435     8A      0.162634     9A      0.162634  
      10A      0.394451    11A      0.593624    12A      0.631158  
      13A      0.631158    14A      0.729638    15A      0.766225  
      16A      0.766225    17A      0.925777    18A      1.218621  
      19A      1.218621    20A      1.247698    21A      1.365386  
      22A      1.365386    23A      1.627171    24A      1.627171  
      25A      2.034915    26A      2.095698    27A      2.095698  
      28A      2.388847  

    Final Occupation by Irrep:
              A 
    DOCC [     6 ]

  Energy converged.

  @RHF Final Energy:   -75.38704089168500

   => Energetics <=

    Nuclear Repulsion Energy =             15.2403036073920024
    One-Electron Energy =                -130.8259188710514991
    Two-Electron Energy =                  40.1985743719744946
    DFT Exchange-Correlation Energy =       0.0000000000000000
    Empirical Dispersion Energy =           0.0000000000000000
    PCM Polarization Energy =               0.0000000000000000
    EFP Energy =                            0.0000000000000000
    Total Energy =                        -75.3870408916849897

    Alert: EFP and PCM quantities not currently incorporated into SCF psivars.

Properties will be evaluated at   0.000000,   0.000000,   0.000000 Bohr
  ==> Properties <==


Properties computed using the SCF density matrix

  Nuclear Dipole Moment: (a.u.)
     X:     0.0000      Y:     0.0000      Z:     0.0000

  Electronic Dipole Moment: (a.u.)
     X:     0.0000      Y:     0.0000      Z:     0.0000

  Dipole Moment: (a.u.)
     X:     0.0000      Y:     0.0000      Z:     0.0000     Total:     0.0000

  Dipole Moment: (Debye)
     X:     0.0000      Y:     0.0000      Z:     0.0000     Total:     0.0000


  Saving occupied orbitals to File 180.

*** tstop() called on Kevins-MacBook-Pro.local at Thu Feb 26 10:30:48 2015
Module time:
	user time   =       0.30 seconds =       0.01 minutes
	system time =       0.01 seconds =       0.00 minutes
	total time  =          0 seconds =       0.00 minutes
Total time:
	user time   =       0.62 seconds =       0.01 minutes
	system time =       0.04 seconds =       0.00 minutes
	total time  =          1 seconds =       0.02 minutes
Reading options from the SCF block
Calling plugin scf.so.
    Molecular point group: c1
    Full point group: D_inf_h

    Geometry (in Angstrom), charge = 0, multiplicity = 1:

       Center              X                  Y                   Z       
    ------------   -----------------  -----------------  -----------------
           C          0.000000000000     0.000000000000    -0.625000000000
           C          0.000000000000     0.000000000000     0.625000000000


    Nuclear repulsion energy:      15.24030361

  ## Overlap (Symmetry 0) ##
  Irrep: 1 Size: 28 x 28

                 1                   2                   3                   4                   5

    1     1.00000000000000    -0.21569951246502     0.19014030769023     0.00000000000000     0.00000000000000
    2    -0.21569951246502     1.00000000000000     0.71833182144562     0.00000000000000     0.00000000000000
    3     0.19014030769023     0.71833182144562     1.00000000000000    -0.00000000000000     0.00000000000000
    4     0.00000000000000     0.00000000000000    -0.00000000000000     1.00000000000000     0.00000000000000
    5     0.00000000000000     0.00000000000000     0.00000000000000     0.00000000000000     1.00000000000000
    6     0.00000000000000     0.00000000000000     0.00000000000000     0.00000000000000     0.00000000000000
    7     0.00000000000000     0.00000000000000     0.00000000000000     0.53075947453445     0.00000000000000
    8     0.00000000000000     0.00000000000000     0.00000000000000     0.00000000000000     0.53075947453445
    9     0.00000000000000     0.00000000000000     0.00000000000000     0.00000000000000     0.00000000000000
   10     0.00000000000000     0.00000000000000     0.00000000000000     0.00000000000000     0.00000000000000
   11     0.00000000000000     0.00000000000000     0.00000000000000     0.00000000000000     0.00000000000000
   12     0.00000000000000     0.00000000000000     0.00000000000000     0.00000000000000     0.00000000000000
   13     0.00000000000000     0.00000000000000     0.00000000000000     0.00000000000000     0.00000000000000
   14     0.00000000000000     0.00000000000000     0.00000000000000     0.00000000000000     0.00000000000000
   15     0.00096048155426     0.03485740330234     0.08150271150889     0.06771223877761     0.00000000000000
   16     0.03485740330234     0.23109463873580     0.37410552347582     0.30759108146322     0.00000000000000
   17     0.08150271150889     0.37410552347582     0.64065310307946     0.25720732779558     0.00000000000000
   18    -0.06771223877761    -0.30759108146322    -0.25720732779558    -0.36544393488623     0.00000000000000
   19     0.00000000000000     0.00000000000000     0.00000000000000     0.00000000000000     0.15377919479632
   20     0.00000000000000     0.00000000000000     0.00000000000000     0.00000000000000     0.00000000000000
   21    -0.14360812743922    -0.51633705838509    -0.61095039286610    -0.09456368660953     0.00000000000000
   22     0.00000000000000     0.00000000000000     0.00000000000000     0.00000000000000     0.27000565324435
   23     0.00000000000000     0.00000000000000     0.00000000000000     0.00000000000000     0.00000000000000
   24     0.15099339582575     0.30289440772300     0.13719001048002     0.25599842980234     0.00000000000000
   25     0.00000000000000     0.00000000000000     0.00000000000000     0.00000000000000    -0.33676228427411
   26     0.00000000000000     0.00000000000000     0.00000000000000     0.00000000000000     0.00000000000000
   27     0.00000000000000     0.00000000000000     0.00000000000000     0.00000000000000     0.00000000000000
   28     0.00000000000000     0.00000000000000     0.00000000000000     0.00000000000000     0.00000000000000

                 6                   7                   8                   9                  10

    1     0.00000000000000     0.00000000000000     0.00000000000000     0.00000000000000     0.00000000000000
    2     0.00000000000000     0.00000000000000     0.00000000000000     0.00000000000000     0.00000000000000
    3     0.00000000000000     0.00000000000000     0.00000000000000     0.00000000000000     0.00000000000000
    4     0.00000000000000     0.53075947453445     0.00000000000000     0.00000000000000     0.00000000000000
    5     0.00000000000000     0.00000000000000     0.53075947453445     0.00000000000000     0.00000000000000
    6     1.00000000000000     0.00000000000000     0.00000000000000     0.53075947453445     0.00000000000000
    7     0.00000000000000     1.00000000000000     0.00000000000000     0.00000000000000     0.00000000000000
    8     0.00000000000000     0.00000000000000     1.00000000000000     0.00000000000000     0.00000000000000
    9     0.53075947453445     0.00000000000000     0.00000000000000     1.00000000000000     0.00000000000000
   10     0.00000000000000     0.00000000000000     0.00000000000000     0.00000000000000     1.00000000000000
   11     0.00000000000000     0.00000000000000     0.00000000000000     0.00000000000000     0.00000000000000
   12     0.00000000000000     0.00000000000000     0.00000000000000     0.00000000000000     0.00000000000000
   13     0.00000000000000     0.00000000000000     0.00000000000000     0.00000000000000     0.00000000000000
   14     0.00000000000000     0.00000000000000     0.00000000000000     0.00000000000000     0.00000000000000
   15     0.00000000000000     0.14360812743922     0.00000000000000     0.00000000000000     0.15099339582575
   16     0.00000000000000     0.51633705838509     0.00000000000000     0.00000000000000     0.30289440772300
   17     0.00000000000000     0.61095039286610     0.00000000000000     0.00000000000000     0.13719001048002
   18     0.00000000000000    -0.09456368660953     0.00000000000000     0.00000000000000    -0.25599842980234
   19     0.00000000000000     0.00000000000000     0.27000565324435     0.00000000000000     0.00000000000000
   20     0.15377919479632     0.00000000000000     0.00000000000000     0.27000565324435     0.00000000000000
   21     0.00000000000000     0.10056189696388     0.00000000000000     0.00000000000000     0.09324069372053
   22     0.00000000000000     0.00000000000000     0.65492995795820     0.00000000000000     0.00000000000000
   23     0.27000565324435     0.00000000000000     0.00000000000000     0.65492995795820     0.00000000000000
   24     0.00000000000000    -0.09324069372053     0.00000000000000     0.00000000000000     0.01024077160229
   25     0.00000000000000     0.00000000000000    -0.23993801920103     0.00000000000000     0.00000000000000
   26    -0.33676228427411     0.00000000000000     0.00000000000000    -0.23993801920103     0.00000000000000
   27     0.00000000000000     0.00000000000000     0.00000000000000     0.00000000000000    -0.00000000000000
   28     0.00000000000000     0.00000000000000     0.00000000000000     0.00000000000000     0.00000000000000

                11                  12                  13                  14                  15

    1     0.00000000000000     0.00000000000000     0.00000000000000     0.00000000000000     0.00096048155426
    2     0.00000000000000     0.00000000000000     0.00000000000000     0.00000000000000     0.03485740330234
    3     0.00000000000000     0.00000000000000     0.00000000000000     0.00000000000000     0.08150271150889
    4     0.00000000000000     0.00000000000000     0.00000000000000     0.00000000000000     0.06771223877761
    5     0.00000000000000     0.00000000000000     0.00000000000000     0.00000000000000     0.00000000000000
    6     0.00000000000000     0.00000000000000     0.00000000000000     0.00000000000000     0.00000000000000
    7     0.00000000000000     0.00000000000000     0.00000000000000     0.00000000000000     0.14360812743922
    8     0.00000000000000     0.00000000000000     0.00000000000000     0.00000000000000     0.00000000000000
    9     0.00000000000000     0.00000000000000     0.00000000000000     0.00000000000000     0.00000000000000
   10     0.00000000000000     0.00000000000000     0.00000000000000     0.00000000000000     0.15099339582575
   11     1.00000000000000     0.00000000000000     0.00000000000000     0.00000000000000     0.00000000000000
   12     0.00000000000000     1.00000000000000     0.00000000000000     0.00000000000000     0.00000000000000
   13     0.00000000000000     0.00000000000000     1.00000000000000     0.00000000000000     0.00000000000000
   14     0.00000000000000     0.00000000000000     0.00000000000000     1.00000000000000     0.00000000000000
   15     0.00000000000000     0.00000000000000     0.00000000000000     0.00000000000000     1.00000000000000
   16     0.00000000000000     0.00000000000000     0.00000000000000     0.00000000000000    -0.21569951246502
   17     0.00000000000000     0.00000000000000     0.00000000000000     0.00000000000000     0.19014030769023
   18     0.00000000000000     0.00000000000000     0.00000000000000     0.00000000000000    -0.00000000000000
   19     0.33676228427411     0.00000000000000     0.00000000000000     0.00000000000000     0.00000000000000
   20     0.00000000000000     0.33676228427411     0.00000000000000     0.00000000000000     0.00000000000000
   21     0.00000000000000     0.00000000000000     0.00000000000000     0.00000000000000    -0.00000000000000
   22     0.23993801920103     0.00000000000000     0.00000000000000     0.00000000000000     0.00000000000000
   23     0.00000000000000     0.23993801920103     0.00000000000000     0.00000000000000     0.00000000000000
   24     0.00000000000000     0.00000000000000     0.00000000000000     0.00000000000000     0.00000000000000
   25    -0.44600163268545     0.00000000000000     0.00000000000000     0.00000000000000     0.00000000000000
   26     0.00000000000000    -0.44600163268545     0.00000000000000     0.00000000000000     0.00000000000000
   27     0.00000000000000     0.00000000000000     0.21557596389575     0.00000000000000     0.00000000000000
   28     0.00000000000000     0.00000000000000     0.00000000000000     0.21557596389575     0.00000000000000

                16                  17                  18                  19                  20

    1     0.03485740330234     0.08150271150889    -0.06771223877761     0.00000000000000     0.00000000000000
    2     0.23109463873580     0.37410552347582    -0.30759108146322     0.00000000000000     0.00000000000000
    3     0.37410552347582     0.64065310307946    -0.25720732779558     0.00000000000000     0.00000000000000
    4     0.30759108146322     0.25720732779558    -0.36544393488623     0.00000000000000     0.00000000000000
    5     0.00000000000000     0.00000000000000     0.00000000000000     0.15377919479632     0.00000000000000
    6     0.00000000000000     0.00000000000000     0.00000000000000     0.00000000000000     0.15377919479632
    7     0.51633705838509     0.61095039286610    -0.09456368660953     0.00000000000000     0.00000000000000
    8     0.00000000000000     0.00000000000000     0.00000000000000     0.27000565324435     0.00000000000000
    9     0.00000000000000     0.00000000000000     0.00000000000000     0.00000000000000     0.27000565324435
   10     0.30289440772300     0.13719001048002    -0.25599842980234     0.00000000000000     0.00000000000000
   11     0.00000000000000     0.00000000000000     0.00000000000000     0.33676228427411     0.00000000000000
   12     0.00000000000000     0.00000000000000     0.00000000000000     0.00000000000000     0.33676228427411
   13     0.00000000000000     0.00000000000000     0.00000000000000     0.00000000000000     0.00000000000000
   14     0.00000000000000     0.00000000000000     0.00000000000000     0.00000000000000     0.00000000000000
   15    -0.21569951246502     0.19014030769023    -0.00000000000000     0.00000000000000     0.00000000000000
   16     1.00000000000000     0.71833182144562    -0.00000000000000     0.00000000000000     0.00000000000000
   17     0.71833182144562     1.00000000000000     0.00000000000000     0.00000000000000     0.00000000000000
   18    -0.00000000000000     0.00000000000000     1.00000000000000     0.00000000000000     0.00000000000000
   19     0.00000000000000     0.00000000000000     0.00000000000000     1.00000000000000     0.00000000000000
   20     0.00000000000000     0.00000000000000     0.00000000000000     0.00000000000000     1.00000000000000
   21    -0.00000000000000     0.00000000000000     0.53075947453445     0.00000000000000     0.00000000000000
   22     0.00000000000000     0.00000000000000     0.00000000000000     0.53075947453445     0.00000000000000
   23     0.00000000000000     0.00000000000000     0.00000000000000     0.00000000000000     0.53075947453445
   24     0.00000000000000     0.00000000000000    -0.00000000000000     0.00000000000000     0.00000000000000
   25     0.00000000000000     0.00000000000000     0.00000000000000    -0.00000000000000     0.00000000000000
   26     0.00000000000000     0.00000000000000     0.00000000000000     0.00000000000000    -0.00000000000000
   27     0.00000000000000     0.00000000000000     0.00000000000000     0.00000000000000     0.00000000000000
   28     0.00000000000000     0.00000000000000     0.00000000000000     0.00000000000000     0.00000000000000

                21                  22                  23                  24                  25

    1    -0.14360812743922     0.00000000000000     0.00000000000000     0.15099339582575     0.00000000000000
    2    -0.51633705838509     0.00000000000000     0.00000000000000     0.30289440772300     0.00000000000000
    3    -0.61095039286610     0.00000000000000     0.00000000000000     0.13719001048002     0.00000000000000
    4    -0.09456368660953     0.00000000000000     0.00000000000000     0.25599842980234     0.00000000000000
    5     0.00000000000000     0.27000565324435     0.00000000000000     0.00000000000000    -0.33676228427411
    6     0.00000000000000     0.00000000000000     0.27000565324435     0.00000000000000     0.00000000000000
    7     0.10056189696388     0.00000000000000     0.00000000000000    -0.09324069372053     0.00000000000000
    8     0.00000000000000     0.65492995795820     0.00000000000000     0.00000000000000    -0.23993801920103
    9     0.00000000000000     0.00000000000000     0.65492995795820     0.00000000000000     0.00000000000000
   10     0.09324069372053     0.00000000000000     0.00000000000000     0.01024077160229     0.00000000000000
   11     0.00000000000000     0.23993801920103     0.00000000000000     0.00000000000000    -0.44600163268545
   12     0.00000000000000     0.00000000000000     0.23993801920103     0.00000000000000     0.00000000000000
   13     0.00000000000000     0.00000000000000     0.00000000000000    -0.00000000000000     0.00000000000000
   14     0.00000000000000     0.00000000000000     0.00000000000000     0.00000000000000     0.00000000000000
   15    -0.00000000000000     0.00000000000000     0.00000000000000     0.00000000000000     0.00000000000000
   16    -0.00000000000000     0.00000000000000     0.00000000000000     0.00000000000000     0.00000000000000
   17     0.00000000000000     0.00000000000000     0.00000000000000     0.00000000000000     0.00000000000000
   18     0.53075947453445     0.00000000000000     0.00000000000000    -0.00000000000000     0.00000000000000
   19     0.00000000000000     0.53075947453445     0.00000000000000     0.00000000000000    -0.00000000000000
   20     0.00000000000000     0.00000000000000     0.53075947453445     0.00000000000000     0.00000000000000
   21     1.00000000000000     0.00000000000000     0.00000000000000     0.00000000000000     0.00000000000000
   22     0.00000000000000     1.00000000000000     0.00000000000000     0.00000000000000     0.00000000000000
   23     0.00000000000000     0.00000000000000     1.00000000000000     0.00000000000000     0.00000000000000
   24     0.00000000000000     0.00000000000000     0.00000000000000     1.00000000000000     0.00000000000000
   25     0.00000000000000     0.00000000000000     0.00000000000000     0.00000000000000     1.00000000000000
   26     0.00000000000000     0.00000000000000     0.00000000000000     0.00000000000000     0.00000000000000
   27     0.00000000000000     0.00000000000000     0.00000000000000     0.00000000000000     0.00000000000000
   28     0.00000000000000     0.00000000000000     0.00000000000000     0.00000000000000     0.00000000000000

                26                  27                  28

    1     0.00000000000000     0.00000000000000     0.00000000000000
    2     0.00000000000000     0.00000000000000     0.00000000000000
    3     0.00000000000000     0.00000000000000     0.00000000000000
    4     0.00000000000000     0.00000000000000     0.00000000000000
    5     0.00000000000000     0.00000000000000     0.00000000000000
    6    -0.33676228427411     0.00000000000000     0.00000000000000
    7     0.00000000000000     0.00000000000000     0.00000000000000
    8     0.00000000000000     0.00000000000000     0.00000000000000
    9    -0.23993801920103     0.00000000000000     0.00000000000000
   10     0.00000000000000     0.00000000000000     0.00000000000000
   11     0.00000000000000     0.00000000000000     0.00000000000000
   12    -0.44600163268545     0.00000000000000     0.00000000000000
   13     0.00000000000000     0.21557596389575     0.00000000000000
   14     0.00000000000000     0.00000000000000     0.21557596389575
   15     0.00000000000000     0.00000000000000     0.00000000000000
   16     0.00000000000000     0.00000000000000     0.00000000000000
   17     0.00000000000000     0.00000000000000     0.00000000000000
   18     0.00000000000000     0.00000000000000     0.00000000000000
   19     0.00000000000000     0.00000000000000     0.00000000000000
   20    -0.00000000000000     0.00000000000000     0.00000000000000
   21     0.00000000000000     0.00000000000000     0.00000000000000
   22     0.00000000000000     0.00000000000000     0.00000000000000
   23     0.00000000000000     0.00000000000000     0.00000000000000
   24     0.00000000000000     0.00000000000000     0.00000000000000
   25     0.00000000000000     0.00000000000000     0.00000000000000
   26     1.00000000000000     0.00000000000000     0.00000000000000
   27     0.00000000000000     1.00000000000000     0.00000000000000
   28     0.00000000000000     0.00000000000000     1.00000000000000



  ## Kinetic (Symmetry 0) ##
  Irrep: 1 Size: 28 x 28

                 1                   2                   3                   4                   5

    1    16.03400374463980    -8.45168831981506     0.08671397508970     0.00000000000000     0.00000000000000
    2    -8.45168831981506     5.29424781001224     0.25075166043659    -0.00000000000000     0.00000000000000
    3     0.08671397508970     0.25075166043659     0.23940000000000    -0.00000000000000     0.00000000000000
    4     0.00000000000000    -0.00000000000000    -0.00000000000000     2.15837853572985     0.00000000000000
    5     0.00000000000000     0.00000000000000     0.00000000000000     0.00000000000000     2.15837853572985
    6     0.00000000000000     0.00000000000000     0.00000000000000     0.00000000000000     0.00000000000000
    7    -0.00000000000000     0.00000000000000     0.00000000000000     0.32181758984459     0.00000000000000
    8     0.00000000000000     0.00000000000000     0.00000000000000     0.00000000000000     0.32181758984459
    9     0.00000000000000     0.00000000000000     0.00000000000000     0.00000000000000     0.00000000000000
   10     0.00000000000000     0.00000000000000     0.00000000000000    -0.00000000000000     0.00000000000000
   11     0.00000000000000     0.00000000000000     0.00000000000000     0.00000000000000    -0.00000000000000
   12     0.00000000000000     0.00000000000000     0.00000000000000     0.00000000000000     0.00000000000000
   13     0.00000000000000     0.00000000000000     0.00000000000000     0.00000000000000     0.00000000000000
   14     0.00000000000000     0.00000000000000     0.00000000000000     0.00000000000000     0.00000000000000
   15    -0.00157964255566    -0.03104848126424     0.01609345034934    -0.01730071591244     0.00000000000000
   16    -0.03104848126424     0.05344214826639     0.07494371322533     0.19189445392860     0.00000000000000
   17     0.01609345034934     0.07494371322533     0.10784457263603     0.11631138772752     0.00000000000000
   18     0.01730071591244    -0.19189445392860    -0.11631138772752    -0.45271036337474     0.00000000000000
   19     0.00000000000000     0.00000000000000     0.00000000000000     0.00000000000000     0.06719032847269
   20     0.00000000000000     0.00000000000000     0.00000000000000     0.00000000000000     0.00000000000000
   21    -0.07030618855744    -0.21783213596344    -0.19634166075944    -0.13050653424051     0.00000000000000
   22     0.00000000000000     0.00000000000000     0.00000000000000     0.00000000000000     0.11909275937600
   23     0.00000000000000     0.00000000000000     0.00000000000000     0.00000000000000     0.00000000000000
   24     0.11333161518925     0.35939581112044     0.09536824176755     0.66172654741129     0.00000000000000
   25     0.00000000000000     0.00000000000000     0.00000000000000     0.00000000000000    -0.35653989907239
   26     0.00000000000000     0.00000000000000     0.00000000000000     0.00000000000000     0.00000000000000
   27     0.00000000000000     0.00000000000000     0.00000000000000     0.00000000000000     0.00000000000000
   28     0.00000000000000     0.00000000000000     0.00000000000000     0.00000000000000     0.00000000000000

                 6                   7                   8                   9                  10

    1     0.00000000000000    -0.00000000000000     0.00000000000000     0.00000000000000     0.00000000000000
    2     0.00000000000000     0.00000000000000     0.00000000000000     0.00000000000000     0.00000000000000
    3     0.00000000000000     0.00000000000000     0.00000000000000     0.00000000000000     0.00000000000000
    4     0.00000000000000     0.32181758984459     0.00000000000000     0.00000000000000    -0.00000000000000
    5     0.00000000000000     0.00000000000000     0.32181758984459     0.00000000000000     0.00000000000000
    6     2.15837853572985     0.00000000000000     0.00000000000000     0.32181758984459     0.00000000000000
    7     0.00000000000000     0.37925000000000     0.00000000000000     0.00000000000000     0.00000000000000
    8     0.00000000000000     0.00000000000000     0.37925000000000     0.00000000000000     0.00000000000000
    9     0.32181758984459     0.00000000000000     0.00000000000000     0.37925000000000     0.00000000000000
   10     0.00000000000000     0.00000000000000     0.00000000000000     0.00000000000000     1.92500000000000
   11     0.00000000000000     0.00000000000000     0.00000000000000     0.00000000000000     0.00000000000000
   12    -0.00000000000000     0.00000000000000     0.00000000000000     0.00000000000000     0.00000000000000
   13     0.00000000000000     0.00000000000000     0.00000000000000     0.00000000000000     0.00000000000000
   14     0.00000000000000     0.00000000000000     0.00000000000000     0.00000000000000     0.00000000000000
   15     0.00000000000000     0.07030618855744     0.00000000000000     0.00000000000000     0.11333161518925
   16     0.00000000000000     0.21783213596344     0.00000000000000     0.00000000000000     0.35939581112044
   17     0.00000000000000     0.19634166075944     0.00000000000000     0.00000000000000     0.09536824176755
   18     0.00000000000000    -0.13050653424051     0.00000000000000     0.00000000000000    -0.66172654741129
   19     0.00000000000000     0.00000000000000     0.11909275937600     0.00000000000000     0.00000000000000
   20     0.06719032847269     0.00000000000000     0.00000000000000     0.11909275937600     0.00000000000000
   21     0.00000000000000    -0.05241596453916     0.00000000000000     0.00000000000000     0.01918282484910
   22     0.00000000000000     0.00000000000000     0.20633336912923     0.00000000000000     0.00000000000000
   23     0.11909275937600     0.00000000000000     0.00000000000000     0.20633336912923     0.00000000000000
   24     0.00000000000000    -0.01918282484910     0.00000000000000     0.00000000000000     0.27035904982807
   25     0.00000000000000     0.00000000000000    -0.16185078664602     0.00000000000000     0.00000000000000
   26    -0.35653989907239     0.00000000000000     0.00000000000000    -0.16185078664602     0.00000000000000
   27     0.00000000000000     0.00000000000000     0.00000000000000     0.00000000000000     0.00000000000000
   28     0.00000000000000     0.00000000000000     0.00000000000000     0.00000000000000     0.00000000000000

                11                  12                  13                  14                  15

    1     0.00000000000000     0.00000000000000     0.00000000000000     0.00000000000000    -0.00157964255566
    2     0.00000000000000     0.00000000000000     0.00000000000000     0.00000000000000    -0.03104848126424
    3     0.00000000000000     0.00000000000000     0.00000000000000     0.00000000000000     0.01609345034934
    4     0.00000000000000     0.00000000000000     0.00000000000000     0.00000000000000    -0.01730071591244
    5    -0.00000000000000     0.00000000000000     0.00000000000000     0.00000000000000     0.00000000000000
    6     0.00000000000000    -0.00000000000000     0.00000000000000     0.00000000000000     0.00000000000000
    7     0.00000000000000     0.00000000000000     0.00000000000000     0.00000000000000     0.07030618855744
    8     0.00000000000000     0.00000000000000     0.00000000000000     0.00000000000000     0.00000000000000
    9     0.00000000000000     0.00000000000000     0.00000000000000     0.00000000000000     0.00000000000000
   10     0.00000000000000     0.00000000000000     0.00000000000000     0.00000000000000     0.11333161518925
   11     1.92500000000000     0.00000000000000     0.00000000000000     0.00000000000000     0.00000000000000
   12     0.00000000000000     1.92500000000000     0.00000000000000     0.00000000000000     0.00000000000000
   13     0.00000000000000     0.00000000000000     1.92500000000000     0.00000000000000     0.00000000000000
   14     0.00000000000000     0.00000000000000     0.00000000000000     1.92500000000000     0.00000000000000
   15     0.00000000000000     0.00000000000000     0.00000000000000     0.00000000000000    16.03400374463980
   16     0.00000000000000     0.00000000000000     0.00000000000000     0.00000000000000    -8.45168831981506
   17     0.00000000000000     0.00000000000000     0.00000000000000     0.00000000000000     0.08671397508970
   18     0.00000000000000     0.00000000000000     0.00000000000000     0.00000000000000    -0.00000000000000
   19     0.35653989907239     0.00000000000000     0.00000000000000     0.00000000000000     0.00000000000000
   20     0.00000000000000     0.35653989907239     0.00000000000000     0.00000000000000     0.00000000000000
   21     0.00000000000000     0.00000000000000     0.00000000000000     0.00000000000000     0.00000000000000
   22     0.16185078664602     0.00000000000000     0.00000000000000     0.00000000000000     0.00000000000000
   23     0.00000000000000     0.16185078664602     0.00000000000000     0.00000000000000     0.00000000000000
   24     0.00000000000000     0.00000000000000     0.00000000000000     0.00000000000000     0.00000000000000
   25    -0.84602083750176     0.00000000000000     0.00000000000000     0.00000000000000     0.00000000000000
   26     0.00000000000000    -0.84602083750176     0.00000000000000     0.00000000000000     0.00000000000000
   27     0.00000000000000     0.00000000000000     0.23304989143948     0.00000000000000     0.00000000000000
   28     0.00000000000000     0.00000000000000     0.00000000000000     0.23304989143948     0.00000000000000

                16                  17                  18                  19                  20

    1    -0.03104848126424     0.01609345034934     0.01730071591244     0.00000000000000     0.00000000000000
    2     0.05344214826639     0.07494371322533    -0.19189445392860     0.00000000000000     0.00000000000000
    3     0.07494371322533     0.10784457263603    -0.11631138772752     0.00000000000000     0.00000000000000
    4     0.19189445392860     0.11631138772752    -0.45271036337474     0.00000000000000     0.00000000000000
    5     0.00000000000000     0.00000000000000     0.00000000000000     0.06719032847269     0.00000000000000
    6     0.00000000000000     0.00000000000000     0.00000000000000     0.00000000000000     0.06719032847269
    7     0.21783213596344     0.19634166075944    -0.13050653424051     0.00000000000000     0.00000000000000
    8     0.00000000000000     0.00000000000000     0.00000000000000     0.11909275937600     0.00000000000000
    9     0.00000000000000     0.00000000000000     0.00000000000000     0.00000000000000     0.11909275937600
   10     0.35939581112044     0.09536824176755    -0.66172654741129     0.00000000000000     0.00000000000000
   11     0.00000000000000     0.00000000000000     0.00000000000000     0.35653989907239     0.00000000000000
   12     0.00000000000000     0.00000000000000     0.00000000000000     0.00000000000000     0.35653989907239
   13     0.00000000000000     0.00000000000000     0.00000000000000     0.00000000000000     0.00000000000000
   14     0.00000000000000     0.00000000000000     0.00000000000000     0.00000000000000     0.00000000000000
   15    -8.45168831981506     0.08671397508970    -0.00000000000000     0.00000000000000     0.00000000000000
   16     5.29424781001224     0.25075166043659     0.00000000000000     0.00000000000000     0.00000000000000
   17     0.25075166043659     0.23940000000000     0.00000000000000     0.00000000000000     0.00000000000000
   18     0.00000000000000     0.00000000000000     2.15837853572985     0.00000000000000     0.00000000000000
   19     0.00000000000000     0.00000000000000     0.00000000000000     2.15837853572985     0.00000000000000
   20     0.00000000000000     0.00000000000000     0.00000000000000     0.00000000000000     2.15837853572985
   21    -0.00000000000000     0.00000000000000     0.32181758984459     0.00000000000000     0.00000000000000
   22     0.00000000000000     0.00000000000000     0.00000000000000     0.32181758984459     0.00000000000000
   23     0.00000000000000     0.00000000000000     0.00000000000000     0.00000000000000     0.32181758984459
   24     0.00000000000000     0.00000000000000     0.00000000000000     0.00000000000000     0.00000000000000
   25     0.00000000000000     0.00000000000000     0.00000000000000     0.00000000000000     0.00000000000000
   26     0.00000000000000     0.00000000000000     0.00000000000000     0.00000000000000     0.00000000000000
   27     0.00000000000000     0.00000000000000     0.00000000000000     0.00000000000000     0.00000000000000
   28     0.00000000000000     0.00000000000000     0.00000000000000     0.00000000000000     0.00000000000000

                21                  22                  23                  24                  25

    1    -0.07030618855744     0.00000000000000     0.00000000000000     0.11333161518925     0.00000000000000
    2    -0.21783213596344     0.00000000000000     0.00000000000000     0.35939581112044     0.00000000000000
    3    -0.19634166075944     0.00000000000000     0.00000000000000     0.09536824176755     0.00000000000000
    4    -0.13050653424051     0.00000000000000     0.00000000000000     0.66172654741129     0.00000000000000
    5     0.00000000000000     0.11909275937600     0.00000000000000     0.00000000000000    -0.35653989907239
    6     0.00000000000000     0.00000000000000     0.11909275937600     0.00000000000000     0.00000000000000
    7    -0.05241596453916     0.00000000000000     0.00000000000000    -0.01918282484910     0.00000000000000
    8     0.00000000000000     0.20633336912923     0.00000000000000     0.00000000000000    -0.16185078664602
    9     0.00000000000000     0.00000000000000     0.20633336912923     0.00000000000000     0.00000000000000
   10     0.01918282484910     0.00000000000000     0.00000000000000     0.27035904982807     0.00000000000000
   11     0.00000000000000     0.16185078664602     0.00000000000000     0.00000000000000    -0.84602083750176
   12     0.00000000000000     0.00000000000000     0.16185078664602     0.00000000000000     0.00000000000000
   13     0.00000000000000     0.00000000000000     0.00000000000000     0.00000000000000     0.00000000000000
   14     0.00000000000000     0.00000000000000     0.00000000000000     0.00000000000000     0.00000000000000
   15     0.00000000000000     0.00000000000000     0.00000000000000     0.00000000000000     0.00000000000000
   16    -0.00000000000000     0.00000000000000     0.00000000000000     0.00000000000000     0.00000000000000
   17     0.00000000000000     0.00000000000000     0.00000000000000     0.00000000000000     0.00000000000000
   18     0.32181758984459     0.00000000000000     0.00000000000000     0.00000000000000     0.00000000000000
   19     0.00000000000000     0.32181758984459     0.00000000000000     0.00000000000000     0.00000000000000
   20     0.00000000000000     0.00000000000000     0.32181758984459     0.00000000000000     0.00000000000000
   21     0.37925000000000     0.00000000000000     0.00000000000000     0.00000000000000     0.00000000000000
   22     0.00000000000000     0.37925000000000     0.00000000000000     0.00000000000000     0.00000000000000
   23     0.00000000000000     0.00000000000000     0.37925000000000     0.00000000000000     0.00000000000000
   24     0.00000000000000     0.00000000000000     0.00000000000000     1.92500000000000     0.00000000000000
   25     0.00000000000000     0.00000000000000     0.00000000000000     0.00000000000000     1.92500000000000
   26     0.00000000000000     0.00000000000000     0.00000000000000     0.00000000000000     0.00000000000000
   27     0.00000000000000     0.00000000000000     0.00000000000000     0.00000000000000     0.00000000000000
   28     0.00000000000000     0.00000000000000     0.00000000000000     0.00000000000000     0.00000000000000

                26                  27                  28

    1     0.00000000000000     0.00000000000000     0.00000000000000
    2     0.00000000000000     0.00000000000000     0.00000000000000
    3     0.00000000000000     0.00000000000000     0.00000000000000
    4     0.00000000000000     0.00000000000000     0.00000000000000
    5     0.00000000000000     0.00000000000000     0.00000000000000
    6    -0.35653989907239     0.00000000000000     0.00000000000000
    7     0.00000000000000     0.00000000000000     0.00000000000000
    8     0.00000000000000     0.00000000000000     0.00000000000000
    9    -0.16185078664602     0.00000000000000     0.00000000000000
   10     0.00000000000000     0.00000000000000     0.00000000000000
   11     0.00000000000000     0.00000000000000     0.00000000000000
   12    -0.84602083750176     0.00000000000000     0.00000000000000
   13     0.00000000000000     0.23304989143948     0.00000000000000
   14     0.00000000000000     0.00000000000000     0.23304989143948
   15     0.00000000000000     0.00000000000000     0.00000000000000
   16     0.00000000000000     0.00000000000000     0.00000000000000
   17     0.00000000000000     0.00000000000000     0.00000000000000
   18     0.00000000000000     0.00000000000000     0.00000000000000
   19     0.00000000000000     0.00000000000000     0.00000000000000
   20     0.00000000000000     0.00000000000000     0.00000000000000
   21     0.00000000000000     0.00000000000000     0.00000000000000
   22     0.00000000000000     0.00000000000000     0.00000000000000
   23     0.00000000000000     0.00000000000000     0.00000000000000
   24     0.00000000000000     0.00000000000000     0.00000000000000
   25     0.00000000000000     0.00000000000000     0.00000000000000
   26     1.92500000000000     0.00000000000000     0.00000000000000
   27     0.00000000000000     1.92500000000000     0.00000000000000
   28     0.00000000000000     0.00000000000000     1.92500000000000



  ## Potential (Symmetry 0) ##
  Irrep: 1 Size: 28 x 28

                 1                   2                   3                   4                   5

    1   -36.50649100969947    13.36897424975852    -3.66606800675096    -0.11364163721748     0.00000000000000
    2    13.36897424975853   -12.94734274678530    -4.42714438417820    -0.68833076449279     0.00000000000000
    3    -3.66606800675096    -4.42714438417820    -6.21495977103156    -0.70961500184816     0.00000000000000
    4    -0.11364163721748    -0.68833076449279    -0.70961500184816    -9.04851691163313     0.00000000000000
    5     0.00000000000000     0.00000000000000     0.00000000000000     0.00000000000000    -8.60186197985600
    6     0.00000000000000     0.00000000000000     0.00000000000000     0.00000000000000     0.00000000000000
    7    -0.02270290433123    -0.47676018050049    -0.90883640090388    -3.77751427565481     0.00000000000000
    8     0.00000000000000     0.00000000000000     0.00000000000000     0.00000000000000    -3.37592853504695
    9     0.00000000000000     0.00000000000000     0.00000000000000     0.00000000000000     0.00000000000000
   10    -0.01369333259480    -0.39125589996063    -0.55153762230845    -0.91946039465568     0.00000000000000
   11     0.00000000000000     0.00000000000000     0.00000000000000     0.00000000000000    -0.47261913313076
   12     0.00000000000000     0.00000000000000     0.00000000000000     0.00000000000000     0.00000000000000
   13     0.00000000000000     0.00000000000000     0.00000000000000     0.00000000000000     0.00000000000000
   14     0.00000000000000     0.00000000000000     0.00000000000000     0.00000000000000     0.00000000000000
   15    -0.01731666293112    -0.62170341894404    -1.55007220564531    -1.27112787366609     0.00000000000000
   16    -0.62170341894404    -1.74408112140261    -2.58225029594201    -2.47540006619906     0.00000000000000
   17    -1.55007220564531    -2.58225029594201    -4.26133852309727    -2.31351475042354     0.00000000000000
   18     1.27112787366609     2.47540006619906     2.31351475042354     3.43017410690844     0.00000000000000
   19     0.00000000000000     0.00000000000000     0.00000000000000     0.00000000000000    -1.18406876119340
   20     0.00000000000000     0.00000000000000     0.00000000000000     0.00000000000000     0.00000000000000
   21     2.78293416014452     3.23624710545516     4.01118582205303     1.13316383788806     0.00000000000000
   22     0.00000000000000     0.00000000000000     0.00000000000000     0.00000000000000    -1.76928838482006
   23     0.00000000000000     0.00000000000000     0.00000000000000     0.00000000000000     0.00000000000000
   24    -3.02954119520191    -2.18493973229603    -1.76144410568321    -2.71422105456526     0.00000000000000
   25     0.00000000000000     0.00000000000000     0.00000000000000     0.00000000000000     2.57792608089820
   26     0.00000000000000     0.00000000000000     0.00000000000000     0.00000000000000     0.00000000000000
   27     0.00000000000000     0.00000000000000     0.00000000000000     0.00000000000000     0.00000000000000
   28     0.00000000000000     0.00000000000000     0.00000000000000     0.00000000000000     0.00000000000000

                 6                   7                   8                   9                  10

    1     0.00000000000000    -0.02270290433123     0.00000000000000     0.00000000000000    -0.01369333259480
    2     0.00000000000000    -0.47676018050049     0.00000000000000     0.00000000000000    -0.39125589996063
    3     0.00000000000000    -0.90883640090388     0.00000000000000     0.00000000000000    -0.55153762230845
    4     0.00000000000000    -3.77751427565481     0.00000000000000     0.00000000000000    -0.91946039465567
    5     0.00000000000000     0.00000000000000    -3.37592853504695     0.00000000000000     0.00000000000000
    6    -8.60186197985600     0.00000000000000     0.00000000000000    -3.37592853504695     0.00000000000000
    7     0.00000000000000    -5.16948843005708     0.00000000000000     0.00000000000000    -1.01325895280190
    8     0.00000000000000     0.00000000000000    -4.36091415225202     0.00000000000000     0.00000000000000
    9    -3.37592853504695     0.00000000000000     0.00000000000000    -4.36091415225202     0.00000000000000
   10     0.00000000000000    -1.01325895280190     0.00000000000000     0.00000000000000    -6.93250012528543
   11     0.00000000000000     0.00000000000000    -0.44087807531865     0.00000000000000     0.00000000000000
   12    -0.47261913313076     0.00000000000000     0.00000000000000    -0.44087807531865     0.00000000000000
   13     0.00000000000000     0.00000000000000     0.00000000000000     0.00000000000000     0.00000000000000
   14     0.00000000000000     0.00000000000000     0.00000000000000     0.00000000000000     0.00000000000000
   15     0.00000000000000    -2.78293416014452     0.00000000000000     0.00000000000000    -3.02954119520191
   16     0.00000000000000    -3.23624710545516     0.00000000000000     0.00000000000000    -2.18493973229603
   17     0.00000000000000    -4.01118582205303     0.00000000000000     0.00000000000000    -1.76144410568321
   18     0.00000000000000     1.13316383788806     0.00000000000000     0.00000000000000     2.71422105456526
   19     0.00000000000000     0.00000000000000    -1.76928838482006     0.00000000000000     0.00000000000000
   20    -1.18406876119340     0.00000000000000     0.00000000000000    -1.76928838482006     0.00000000000000
   21     0.00000000000000     0.00081819678738     0.00000000000000     0.00000000000000    -0.15942530603633
   22     0.00000000000000     0.00000000000000    -3.00399298792284     0.00000000000000     0.00000000000000
   23    -1.76928838482006     0.00000000000000     0.00000000000000    -3.00399298792284     0.00000000000000
   24     0.00000000000000     0.15942530603633     0.00000000000000     0.00000000000000    -0.51099272785192
   25     0.00000000000000     0.00000000000000     1.60339046214455     0.00000000000000     0.00000000000000
   26     2.57792608089820     0.00000000000000     0.00000000000000     1.60339046214455     0.00000000000000
   27     0.00000000000000     0.00000000000000     0.00000000000000     0.00000000000000     0.00000000000000
   28     0.00000000000000     0.00000000000000     0.00000000000000     0.00000000000000     0.00000000000000

                11                  12                  13                  14                  15

    1     0.00000000000000     0.00000000000000     0.00000000000000     0.00000000000000    -0.01731666293112
    2     0.00000000000000     0.00000000000000     0.00000000000000     0.00000000000000    -0.62170341894404
    3     0.00000000000000     0.00000000000000     0.00000000000000     0.00000000000000    -1.55007220564531
    4     0.00000000000000     0.00000000000000     0.00000000000000     0.00000000000000    -1.27112787366609
    5    -0.47261913313076     0.00000000000000     0.00000000000000     0.00000000000000     0.00000000000000
    6     0.00000000000000    -0.47261913313076     0.00000000000000     0.00000000000000     0.00000000000000
    7     0.00000000000000     0.00000000000000     0.00000000000000     0.00000000000000    -2.78293416014452
    8    -0.44087807531865     0.00000000000000     0.00000000000000     0.00000000000000     0.00000000000000
    9     0.00000000000000    -0.44087807531865     0.00000000000000     0.00000000000000     0.00000000000000
   10     0.00000000000000     0.00000000000000     0.00000000000000     0.00000000000000    -3.02954119520191
   11    -6.33554934798238     0.00000000000000     0.00000000000000     0.00000000000000     0.00000000000000
   12     0.00000000000000    -6.33554934798238     0.00000000000000     0.00000000000000     0.00000000000000
   13     0.00000000000000     0.00000000000000    -5.96377788412384     0.00000000000000     0.00000000000000
   14     0.00000000000000     0.00000000000000     0.00000000000000    -5.96377788412384     0.00000000000000
   15     0.00000000000000     0.00000000000000     0.00000000000000     0.00000000000000   -36.50649100969947
   16     0.00000000000000     0.00000000000000     0.00000000000000     0.00000000000000    13.36897424975853
   17     0.00000000000000     0.00000000000000     0.00000000000000     0.00000000000000    -3.66606800675096
   18     0.00000000000000     0.00000000000000     0.00000000000000     0.00000000000000     0.11364163721748
   19    -2.57792608089820     0.00000000000000     0.00000000000000     0.00000000000000     0.00000000000000
   20     0.00000000000000    -2.57792608089820     0.00000000000000     0.00000000000000     0.00000000000000
   21     0.00000000000000     0.00000000000000     0.00000000000000     0.00000000000000     0.02270290433123
   22    -1.60339046214455     0.00000000000000     0.00000000000000     0.00000000000000     0.00000000000000
   23     0.00000000000000    -1.60339046214455     0.00000000000000     0.00000000000000     0.00000000000000
   24     0.00000000000000     0.00000000000000     0.00000000000000     0.00000000000000    -0.01369333259480
   25     3.23952704437250     0.00000000000000     0.00000000000000     0.00000000000000     0.00000000000000
   26     0.00000000000000     3.23952704437250     0.00000000000000     0.00000000000000     0.00000000000000
   27     0.00000000000000     0.00000000000000    -1.34883265647668     0.00000000000000     0.00000000000000
   28     0.00000000000000     0.00000000000000     0.00000000000000    -1.34883265647668     0.00000000000000

                16                  17                  18                  19                  20

    1    -0.62170341894404    -1.55007220564531     1.27112787366609     0.00000000000000     0.00000000000000
    2    -1.74408112140261    -2.58225029594201     2.47540006619906     0.00000000000000     0.00000000000000
    3    -2.58225029594201    -4.26133852309727     2.31351475042354     0.00000000000000     0.00000000000000
    4    -2.47540006619906    -2.31351475042354     3.43017410690844     0.00000000000000     0.00000000000000
    5     0.00000000000000     0.00000000000000     0.00000000000000    -1.18406876119340     0.00000000000000
    6     0.00000000000000     0.00000000000000     0.00000000000000     0.00000000000000    -1.18406876119340
    7    -3.23624710545516    -4.01118582205303     1.13316383788806     0.00000000000000     0.00000000000000
    8     0.00000000000000     0.00000000000000     0.00000000000000    -1.76928838482006     0.00000000000000
    9     0.00000000000000     0.00000000000000     0.00000000000000     0.00000000000000    -1.76928838482006
   10    -2.18493973229603    -1.76144410568321     2.71422105456526     0.00000000000000     0.00000000000000
   11     0.00000000000000     0.00000000000000     0.00000000000000    -2.57792608089820     0.00000000000000
   12     0.00000000000000     0.00000000000000     0.00000000000000     0.00000000000000    -2.57792608089820
   13     0.00000000000000     0.00000000000000     0.00000000000000     0.00000000000000     0.00000000000000
   14     0.00000000000000     0.00000000000000     0.00000000000000     0.00000000000000     0.00000000000000
   15    13.36897424975852    -3.66606800675096     0.11364163721748     0.00000000000000     0.00000000000000
   16   -12.94734274678530    -4.42714438417820     0.68833076449279     0.00000000000000     0.00000000000000
   17    -4.42714438417820    -6.21495977103156     0.70961500184816     0.00000000000000     0.00000000000000
   18     0.68833076449279     0.70961500184816    -9.04851691163313     0.00000000000000     0.00000000000000
   19     0.00000000000000     0.00000000000000     0.00000000000000    -8.60186197985600     0.00000000000000
   20     0.00000000000000     0.00000000000000     0.00000000000000     0.00000000000000    -8.60186197985600
   21     0.47676018050049     0.90883640090388    -3.77751427565481     0.00000000000000     0.00000000000000
   22     0.00000000000000     0.00000000000000     0.00000000000000    -3.37592853504695     0.00000000000000
   23     0.00000000000000     0.00000000000000     0.00000000000000     0.00000000000000    -3.37592853504695
   24    -0.39125589996063    -0.55153762230845     0.91946039465568     0.00000000000000     0.00000000000000
   25     0.00000000000000     0.00000000000000     0.00000000000000     0.47261913313076     0.00000000000000
   26     0.00000000000000     0.00000000000000     0.00000000000000     0.00000000000000     0.47261913313076
   27     0.00000000000000     0.00000000000000     0.00000000000000     0.00000000000000     0.00000000000000
   28     0.00000000000000     0.00000000000000     0.00000000000000     0.00000000000000     0.00000000000000

                21                  22                  23                  24                  25

    1     2.78293416014452     0.00000000000000     0.00000000000000    -3.02954119520191     0.00000000000000
    2     3.23624710545516     0.00000000000000     0.00000000000000    -2.18493973229603     0.00000000000000
    3     4.01118582205303     0.00000000000000     0.00000000000000    -1.76144410568321     0.00000000000000
    4     1.13316383788806     0.00000000000000     0.00000000000000    -2.71422105456526     0.00000000000000
    5     0.00000000000000    -1.76928838482006     0.00000000000000     0.00000000000000     2.57792608089820
    6     0.00000000000000     0.00000000000000    -1.76928838482006     0.00000000000000     0.00000000000000
    7     0.00081819678738     0.00000000000000     0.00000000000000     0.15942530603633     0.00000000000000
    8     0.00000000000000    -3.00399298792284     0.00000000000000     0.00000000000000     1.60339046214455
    9     0.00000000000000     0.00000000000000    -3.00399298792284     0.00000000000000     0.00000000000000
   10    -0.15942530603633     0.00000000000000     0.00000000000000    -0.51099272785192     0.00000000000000
   11     0.00000000000000    -1.60339046214455     0.00000000000000     0.00000000000000     3.23952704437250
   12     0.00000000000000     0.00000000000000    -1.60339046214455     0.00000000000000     0.00000000000000
   13     0.00000000000000     0.00000000000000     0.00000000000000     0.00000000000000     0.00000000000000
   14     0.00000000000000     0.00000000000000     0.00000000000000     0.00000000000000     0.00000000000000
   15     0.02270290433123     0.00000000000000     0.00000000000000    -0.01369333259480     0.00000000000000
   16     0.47676018050049     0.00000000000000     0.00000000000000    -0.39125589996063     0.00000000000000
   17     0.90883640090388     0.00000000000000     0.00000000000000    -0.55153762230845     0.00000000000000
   18    -3.77751427565481     0.00000000000000     0.00000000000000     0.91946039465567     0.00000000000000
   19     0.00000000000000    -3.37592853504695     0.00000000000000     0.00000000000000     0.47261913313076
   20     0.00000000000000     0.00000000000000    -3.37592853504695     0.00000000000000     0.00000000000000
   21    -5.16948843005708     0.00000000000000     0.00000000000000     1.01325895280190     0.00000000000000
   22     0.00000000000000    -4.36091415225202     0.00000000000000     0.00000000000000     0.44087807531865
   23     0.00000000000000     0.00000000000000    -4.36091415225202     0.00000000000000     0.00000000000000
   24     1.01325895280190     0.00000000000000     0.00000000000000    -6.93250012528543     0.00000000000000
   25     0.00000000000000     0.44087807531865     0.00000000000000     0.00000000000000    -6.33554934798238
   26     0.00000000000000     0.00000000000000     0.44087807531865     0.00000000000000     0.00000000000000
   27     0.00000000000000     0.00000000000000     0.00000000000000     0.00000000000000     0.00000000000000
   28     0.00000000000000     0.00000000000000     0.00000000000000     0.00000000000000     0.00000000000000

                26                  27                  28

    1     0.00000000000000     0.00000000000000     0.00000000000000
    2     0.00000000000000     0.00000000000000     0.00000000000000
    3     0.00000000000000     0.00000000000000     0.00000000000000
    4     0.00000000000000     0.00000000000000     0.00000000000000
    5     0.00000000000000     0.00000000000000     0.00000000000000
    6     2.57792608089820     0.00000000000000     0.00000000000000
    7     0.00000000000000     0.00000000000000     0.00000000000000
    8     0.00000000000000     0.00000000000000     0.00000000000000
    9     1.60339046214455     0.00000000000000     0.00000000000000
   10     0.00000000000000     0.00000000000000     0.00000000000000
   11     0.00000000000000     0.00000000000000     0.00000000000000
   12     3.23952704437250     0.00000000000000     0.00000000000000
   13     0.00000000000000    -1.34883265647668     0.00000000000000
   14     0.00000000000000     0.00000000000000    -1.34883265647668
   15     0.00000000000000     0.00000000000000     0.00000000000000
   16     0.00000000000000     0.00000000000000     0.00000000000000
   17     0.00000000000000     0.00000000000000     0.00000000000000
   18     0.00000000000000     0.00000000000000     0.00000000000000
   19     0.00000000000000     0.00000000000000     0.00000000000000
   20     0.47261913313076     0.00000000000000     0.00000000000000
   21     0.00000000000000     0.00000000000000     0.00000000000000
   22     0.00000000000000     0.00000000000000     0.00000000000000
   23     0.44087807531865     0.00000000000000     0.00000000000000
   24     0.00000000000000     0.00000000000000     0.00000000000000
   25     0.00000000000000     0.00000000000000     0.00000000000000
   26    -6.33554934798238     0.00000000000000     0.00000000000000
   27     0.00000000000000    -5.96377788412384     0.00000000000000
   28     0.00000000000000     0.00000000000000    -5.96377788412384



  ## One Electron Ints (Symmetry 0) ##
  Irrep: 1 Size: 28 x 28

                 1                   2                   3                   4                   5

    1   -20.47248726505966     4.91728592994347    -3.57935403166126    -0.11364163721748     0.00000000000000
    2     4.91728592994347    -7.65309493677306    -4.17639272374161    -0.68833076449279     0.00000000000000
    3    -3.57935403166126    -4.17639272374161    -5.97555977103156    -0.70961500184816     0.00000000000000
    4    -0.11364163721748    -0.68833076449279    -0.70961500184816    -6.89013837590328     0.00000000000000
    5     0.00000000000000     0.00000000000000     0.00000000000000     0.00000000000000    -6.44348344412615
    6     0.00000000000000     0.00000000000000     0.00000000000000     0.00000000000000     0.00000000000000
    7    -0.02270290433123    -0.47676018050049    -0.90883640090388    -3.45569668581023     0.00000000000000
    8     0.00000000000000     0.00000000000000     0.00000000000000     0.00000000000000    -3.05411094520237
    9     0.00000000000000     0.00000000000000     0.00000000000000     0.00000000000000     0.00000000000000
   10    -0.01369333259480    -0.39125589996063    -0.55153762230845    -0.91946039465568     0.00000000000000
   11     0.00000000000000     0.00000000000000     0.00000000000000     0.00000000000000    -0.47261913313076
   12     0.00000000000000     0.00000000000000     0.00000000000000     0.00000000000000     0.00000000000000
   13     0.00000000000000     0.00000000000000     0.00000000000000     0.00000000000000     0.00000000000000
   14     0.00000000000000     0.00000000000000     0.00000000000000     0.00000000000000     0.00000000000000
   15    -0.01889630548678    -0.65275190020828    -1.53397875529597    -1.28842858957853     0.00000000000000
   16    -0.65275190020828    -1.69063897313621    -2.50730658271668    -2.28350561227046     0.00000000000000
   17    -1.53397875529597    -2.50730658271668    -4.15349395046124    -2.19720336269601     0.00000000000000
   18     1.28842858957853     2.28350561227046     2.19720336269601     2.97746374353369     0.00000000000000
   19     0.00000000000000     0.00000000000000     0.00000000000000     0.00000000000000    -1.11687843272071
   20     0.00000000000000     0.00000000000000     0.00000000000000     0.00000000000000     0.00000000000000
   21     2.71262797158708     3.01841496949172     3.81484416129360     1.00265730364755     0.00000000000000
   22     0.00000000000000     0.00000000000000     0.00000000000000     0.00000000000000    -1.65019562544406
   23     0.00000000000000     0.00000000000000     0.00000000000000     0.00000000000000     0.00000000000000
   24    -2.91620958001266    -1.82554392117559    -1.66607586391566    -2.05249450715397     0.00000000000000
   25     0.00000000000000     0.00000000000000     0.00000000000000     0.00000000000000     2.22138618182582
   26     0.00000000000000     0.00000000000000     0.00000000000000     0.00000000000000     0.00000000000000
   27     0.00000000000000     0.00000000000000     0.00000000000000     0.00000000000000     0.00000000000000
   28     0.00000000000000     0.00000000000000     0.00000000000000     0.00000000000000     0.00000000000000

                 6                   7                   8                   9                  10

    1     0.00000000000000    -0.02270290433123     0.00000000000000     0.00000000000000    -0.01369333259480
    2     0.00000000000000    -0.47676018050049     0.00000000000000     0.00000000000000    -0.39125589996063
    3     0.00000000000000    -0.90883640090388     0.00000000000000     0.00000000000000    -0.55153762230845
    4     0.00000000000000    -3.45569668581023     0.00000000000000     0.00000000000000    -0.91946039465567
    5     0.00000000000000     0.00000000000000    -3.05411094520237     0.00000000000000     0.00000000000000
    6    -6.44348344412615     0.00000000000000     0.00000000000000    -3.05411094520237     0.00000000000000
    7     0.00000000000000    -4.79023843005708     0.00000000000000     0.00000000000000    -1.01325895280190
    8     0.00000000000000     0.00000000000000    -3.98166415225202     0.00000000000000     0.00000000000000
    9    -3.05411094520237     0.00000000000000     0.00000000000000    -3.98166415225202     0.00000000000000
   10     0.00000000000000    -1.01325895280190     0.00000000000000     0.00000000000000    -5.00750012528543
   11     0.00000000000000     0.00000000000000    -0.44087807531865     0.00000000000000     0.00000000000000
   12    -0.47261913313076     0.00000000000000     0.00000000000000    -0.44087807531865     0.00000000000000
   13     0.00000000000000     0.00000000000000     0.00000000000000     0.00000000000000     0.00000000000000
   14     0.00000000000000     0.00000000000000     0.00000000000000     0.00000000000000     0.00000000000000
   15     0.00000000000000    -2.71262797158708     0.00000000000000     0.00000000000000    -2.91620958001266
   16     0.00000000000000    -3.01841496949172     0.00000000000000     0.00000000000000    -1.82554392117559
   17     0.00000000000000    -3.81484416129360     0.00000000000000     0.00000000000000    -1.66607586391566
   18     0.00000000000000     1.00265730364755     0.00000000000000     0.00000000000000     2.05249450715397
   19     0.00000000000000     0.00000000000000    -1.65019562544406     0.00000000000000     0.00000000000000
   20    -1.11687843272071     0.00000000000000     0.00000000000000    -1.65019562544406     0.00000000000000
   21     0.00000000000000    -0.05159776775178     0.00000000000000     0.00000000000000    -0.14024248118724
   22     0.00000000000000     0.00000000000000    -2.79765961879361     0.00000000000000     0.00000000000000
   23    -1.65019562544406     0.00000000000000     0.00000000000000    -2.79765961879361     0.00000000000000
   24     0.00000000000000     0.14024248118724     0.00000000000000     0.00000000000000    -0.24063367802386
   25     0.00000000000000     0.00000000000000     1.44153967549852     0.00000000000000     0.00000000000000
   26     2.22138618182582     0.00000000000000     0.00000000000000     1.44153967549852     0.00000000000000
   27     0.00000000000000     0.00000000000000     0.00000000000000     0.00000000000000     0.00000000000000
   28     0.00000000000000     0.00000000000000     0.00000000000000     0.00000000000000     0.00000000000000

                11                  12                  13                  14                  15

    1     0.00000000000000     0.00000000000000     0.00000000000000     0.00000000000000    -0.01889630548678
    2     0.00000000000000     0.00000000000000     0.00000000000000     0.00000000000000    -0.65275190020828
    3     0.00000000000000     0.00000000000000     0.00000000000000     0.00000000000000    -1.53397875529597
    4     0.00000000000000     0.00000000000000     0.00000000000000     0.00000000000000    -1.28842858957853
    5    -0.47261913313076     0.00000000000000     0.00000000000000     0.00000000000000     0.00000000000000
    6     0.00000000000000    -0.47261913313076     0.00000000000000     0.00000000000000     0.00000000000000
    7     0.00000000000000     0.00000000000000     0.00000000000000     0.00000000000000    -2.71262797158708
    8    -0.44087807531865     0.00000000000000     0.00000000000000     0.00000000000000     0.00000000000000
    9     0.00000000000000    -0.44087807531865     0.00000000000000     0.00000000000000     0.00000000000000
   10     0.00000000000000     0.00000000000000     0.00000000000000     0.00000000000000    -2.91620958001266
   11    -4.41054934798238     0.00000000000000     0.00000000000000     0.00000000000000     0.00000000000000
   12     0.00000000000000    -4.41054934798238     0.00000000000000     0.00000000000000     0.00000000000000
[...]
 Orbital 24 has an occupancy of       0.000000000000
 Orbital 25 has an occupancy of       0.000000000000
 Orbital 26 has an occupancy of       0.000000000000
 Orbital 27 has an occupancy of       0.000000000000
 iter:8  failiter:8  energy:    -91.406954458722  total:    -76.166650851330  error:      0.009775029776
 Iter: 8  T:      420.000  val:           -0.363445
 Orbital 0 has an occupancy of       1.000000000000
 Orbital 1 has an occupancy of       1.000000000000
 Orbital 2 has an occupancy of       1.000000000000
 Orbital 3 has an occupancy of       1.000000000000
 Orbital 4 has an occupancy of       1.000000000000
 Orbital 5 has an occupancy of       1.000000000000
 Orbital 6 has an occupancy of       0.000000000000
 Orbital 7 has an occupancy of       0.000000000000
 Orbital 8 has an occupancy of       0.000000000000
 Orbital 9 has an occupancy of       0.000000000000
 Orbital 10 has an occupancy of       0.000000000000
 Orbital 11 has an occupancy of       0.000000000000
 Orbital 12 has an occupancy of       0.000000000000
 Orbital 13 has an occupancy of       0.000000000000
 Orbital 14 has an occupancy of       0.000000000000
 Orbital 15 has an occupancy of       0.000000000000
 Orbital 16 has an occupancy of       0.000000000000
 Orbital 17 has an occupancy of       0.000000000000
 Orbital 18 has an occupancy of       0.000000000000
 Orbital 19 has an occupancy of       0.000000000000
 Orbital 20 has an occupancy of       0.000000000000
 Orbital 21 has an occupancy of       0.000000000000
 Orbital 22 has an occupancy of       0.000000000000
 Orbital 23 has an occupancy of       0.000000000000
 Orbital 24 has an occupancy of       0.000000000000
 Orbital 25 has an occupancy of       0.000000000000
 Orbital 26 has an occupancy of       0.000000000000
 Orbital 27 has an occupancy of       0.000000000000
 iter:9  failiter:9  energy:    -91.410237714439  total:    -76.169934107047  error:     -0.003283255717
 Iter: 9  T:      410.000  val:           -0.363368
 Orbital 0 has an occupancy of       1.000000000000
 Orbital 1 has an occupancy of       1.000000000000
 Orbital 2 has an occupancy of       1.000000000000
 Orbital 3 has an occupancy of       1.000000000000
 Orbital 4 has an occupancy of       1.000000000000
 Orbital 5 has an occupancy of       1.000000000000
 Orbital 6 has an occupancy of       0.000000000000
 Orbital 7 has an occupancy of       0.000000000000
 Orbital 8 has an occupancy of       0.000000000000
 Orbital 9 has an occupancy of       0.000000000000
 Orbital 10 has an occupancy of       0.000000000000
 Orbital 11 has an occupancy of       0.000000000000
 Orbital 12 has an occupancy of       0.000000000000
 Orbital 13 has an occupancy of       0.000000000000
 Orbital 14 has an occupancy of       0.000000000000
 Orbital 15 has an occupancy of       0.000000000000
 Orbital 16 has an occupancy of       0.000000000000
 Orbital 17 has an occupancy of       0.000000000000
 Orbital 18 has an occupancy of       0.000000000000
 Orbital 19 has an occupancy of       0.000000000000
 Orbital 20 has an occupancy of       0.000000000000
 Orbital 21 has an occupancy of       0.000000000000
 Orbital 22 has an occupancy of       0.000000000000
 Orbital 23 has an occupancy of       0.000000000000
 Orbital 24 has an occupancy of       0.000000000000
 Orbital 25 has an occupancy of       0.000000000000
 Orbital 26 has an occupancy of       0.000000000000
 Orbital 27 has an occupancy of       0.000000000000
 iter:10  failiter:10  energy:    -91.409254886716  total:    -76.168951279324  error:      0.000982827723
 Iter: 10  T:      400.000  val:           -0.363381
 Orbital 0 has an occupancy of       1.000000000000
 Orbital 1 has an occupancy of       1.000000000000
 Orbital 2 has an occupancy of       1.000000000000
 Orbital 3 has an occupancy of       1.000000000000
 Orbital 4 has an occupancy of       1.000000000000
 Orbital 5 has an occupancy of       1.000000000000
 Orbital 6 has an occupancy of       0.000000000000
 Orbital 7 has an occupancy of       0.000000000000
 Orbital 8 has an occupancy of       0.000000000000
 Orbital 9 has an occupancy of       0.000000000000
 Orbital 10 has an occupancy of       0.000000000000
 Orbital 11 has an occupancy of       0.000000000000
 Orbital 12 has an occupancy of       0.000000000000
 Orbital 13 has an occupancy of       0.000000000000
 Orbital 14 has an occupancy of       0.000000000000
 Orbital 15 has an occupancy of       0.000000000000
 Orbital 16 has an occupancy of       0.000000000000
 Orbital 17 has an occupancy of       0.000000000000
 Orbital 18 has an occupancy of       0.000000000000
 Orbital 19 has an occupancy of       0.000000000000
 Orbital 20 has an occupancy of       0.000000000000
 Orbital 21 has an occupancy of       0.000000000000
 Orbital 22 has an occupancy of       0.000000000000
 Orbital 23 has an occupancy of       0.000000000000
 Orbital 24 has an occupancy of       0.000000000000
 Orbital 25 has an occupancy of       0.000000000000
 Orbital 26 has an occupancy of       0.000000000000
 Orbital 27 has an occupancy of       0.000000000000
 iter:11  failiter:11  energy:    -91.409592424449  total:    -76.169288817057  error:     -0.000337537733
 Iter: 11  T:      390.000  val:           -0.363373
 Orbital 0 has an occupancy of       1.000000000000
 Orbital 1 has an occupancy of       1.000000000000
 Orbital 2 has an occupancy of       1.000000000000
 Orbital 3 has an occupancy of       1.000000000000
 Orbital 4 has an occupancy of       1.000000000000
 Orbital 5 has an occupancy of       1.000000000000
 Orbital 6 has an occupancy of       0.000000000000
 Orbital 7 has an occupancy of       0.000000000000
 Orbital 8 has an occupancy of       0.000000000000
 Orbital 9 has an occupancy of       0.000000000000
 Orbital 10 has an occupancy of       0.000000000000
 Orbital 11 has an occupancy of       0.000000000000
 Orbital 12 has an occupancy of       0.000000000000
 Orbital 13 has an occupancy of       0.000000000000
 Orbital 14 has an occupancy of       0.000000000000
 Orbital 15 has an occupancy of       0.000000000000
 Orbital 16 has an occupancy of       0.000000000000
 Orbital 17 has an occupancy of       0.000000000000
 Orbital 18 has an occupancy of       0.000000000000
 Orbital 19 has an occupancy of       0.000000000000
 Orbital 20 has an occupancy of       0.000000000000
 Orbital 21 has an occupancy of       0.000000000000
 Orbital 22 has an occupancy of       0.000000000000
 Orbital 23 has an occupancy of       0.000000000000
 Orbital 24 has an occupancy of       0.000000000000
 Orbital 25 has an occupancy of       0.000000000000
 Orbital 26 has an occupancy of       0.000000000000
 Orbital 27 has an occupancy of       0.000000000000
 iter:12  failiter:12  energy:    -91.409493988230  total:    -76.169190380838  error:      0.000098436219
 Iter: 12  T:      380.000  val:           -0.363374
 Orbital 0 has an occupancy of       1.000000000000
 Orbital 1 has an occupancy of       1.000000000000
 Orbital 2 has an occupancy of       1.000000000000
 Orbital 3 has an occupancy of       1.000000000000
 Orbital 4 has an occupancy of       1.000000000000
 Orbital 5 has an occupancy of       1.000000000000
 Orbital 6 has an occupancy of       0.000000000000
 Orbital 7 has an occupancy of       0.000000000000
 Orbital 8 has an occupancy of       0.000000000000
 Orbital 9 has an occupancy of       0.000000000000
 Orbital 10 has an occupancy of       0.000000000000
 Orbital 11 has an occupancy of       0.000000000000
 Orbital 12 has an occupancy of       0.000000000000
 Orbital 13 has an occupancy of       0.000000000000
 Orbital 14 has an occupancy of       0.000000000000
 Orbital 15 has an occupancy of       0.000000000000
 Orbital 16 has an occupancy of       0.000000000000
 Orbital 17 has an occupancy of       0.000000000000
 Orbital 18 has an occupancy of       0.000000000000
 Orbital 19 has an occupancy of       0.000000000000
 Orbital 20 has an occupancy of       0.000000000000
 Orbital 21 has an occupancy of       0.000000000000
 Orbital 22 has an occupancy of       0.000000000000
 Orbital 23 has an occupancy of       0.000000000000
 Orbital 24 has an occupancy of       0.000000000000
 Orbital 25 has an occupancy of       0.000000000000
 Orbital 26 has an occupancy of       0.000000000000
 Orbital 27 has an occupancy of       0.000000000000
 iter:13  failiter:13  energy:    -91.409528855153  total:    -76.169225247761  error:     -0.000034866922
 Iter: 13  T:      370.000  val:           -0.363373
 Orbital 0 has an occupancy of       1.000000000000
 Orbital 1 has an occupancy of       1.000000000000
 Orbital 2 has an occupancy of       1.000000000000
 Orbital 3 has an occupancy of       1.000000000000
 Orbital 4 has an occupancy of       1.000000000000
 Orbital 5 has an occupancy of       1.000000000000
 Orbital 6 has an occupancy of       0.000000000000
 Orbital 7 has an occupancy of       0.000000000000
 Orbital 8 has an occupancy of       0.000000000000
 Orbital 9 has an occupancy of       0.000000000000
 Orbital 10 has an occupancy of       0.000000000000
 Orbital 11 has an occupancy of       0.000000000000
 Orbital 12 has an occupancy of       0.000000000000
 Orbital 13 has an occupancy of       0.000000000000
 Orbital 14 has an occupancy of       0.000000000000
 Orbital 15 has an occupancy of       0.000000000000
 Orbital 16 has an occupancy of       0.000000000000
 Orbital 17 has an occupancy of       0.000000000000
 Orbital 18 has an occupancy of       0.000000000000
 Orbital 19 has an occupancy of       0.000000000000
 Orbital 20 has an occupancy of       0.000000000000
 Orbital 21 has an occupancy of       0.000000000000
 Orbital 22 has an occupancy of       0.000000000000
 Orbital 23 has an occupancy of       0.000000000000
 Orbital 24 has an occupancy of       0.000000000000
 Orbital 25 has an occupancy of       0.000000000000
 Orbital 26 has an occupancy of       0.000000000000
 Orbital 27 has an occupancy of       0.000000000000
 iter:14  failiter:14  energy:    -91.409519059277  total:    -76.169215451885  error:      0.000009795876
 Iter: 14  T:      360.000  val:           -0.363373
 Orbital 0 has an occupancy of       1.000000000000
 Orbital 1 has an occupancy of       1.000000000000
 Orbital 2 has an occupancy of       1.000000000000
 Orbital 3 has an occupancy of       1.000000000000
 Orbital 4 has an occupancy of       1.000000000000
 Orbital 5 has an occupancy of       1.000000000000
 Orbital 6 has an occupancy of       0.000000000000
 Orbital 7 has an occupancy of       0.000000000000
 Orbital 8 has an occupancy of       0.000000000000
 Orbital 9 has an occupancy of       0.000000000000
 Orbital 10 has an occupancy of       0.000000000000
 Orbital 11 has an occupancy of       0.000000000000
 Orbital 12 has an occupancy of       0.000000000000
 Orbital 13 has an occupancy of       0.000000000000
 Orbital 14 has an occupancy of       0.000000000000
 Orbital 15 has an occupancy of       0.000000000000
 Orbital 16 has an occupancy of       0.000000000000
 Orbital 17 has an occupancy of       0.000000000000
 Orbital 18 has an occupancy of       0.000000000000
 Orbital 19 has an occupancy of       0.000000000000
 Orbital 20 has an occupancy of       0.000000000000
 Orbital 21 has an occupancy of       0.000000000000
 Orbital 22 has an occupancy of       0.000000000000
 Orbital 23 has an occupancy of       0.000000000000
 Orbital 24 has an occupancy of       0.000000000000
 Orbital 25 has an occupancy of       0.000000000000
 Orbital 26 has an occupancy of       0.000000000000
 Orbital 27 has an occupancy of       0.000000000000
 iter:15  failiter:15  energy:    -91.409522683699  total:    -76.169219076307  error:     -0.000003624422
 Iter: 15  T:      350.000  val:           -0.363373
 Orbital 0 has an occupancy of       1.000000000000
 Orbital 1 has an occupancy of       1.000000000000
 Orbital 2 has an occupancy of       1.000000000000
 Orbital 3 has an occupancy of       1.000000000000
 Orbital 4 has an occupancy of       1.000000000000
 Orbital 5 has an occupancy of       1.000000000000
 Orbital 6 has an occupancy of       0.000000000000
 Orbital 7 has an occupancy of       0.000000000000
 Orbital 8 has an occupancy of       0.000000000000
 Orbital 9 has an occupancy of       0.000000000000
 Orbital 10 has an occupancy of       0.000000000000
 Orbital 11 has an occupancy of       0.000000000000
 Orbital 12 has an occupancy of       0.000000000000
 Orbital 13 has an occupancy of       0.000000000000
 Orbital 14 has an occupancy of       0.000000000000
 Orbital 15 has an occupancy of       0.000000000000
 Orbital 16 has an occupancy of       0.000000000000
 Orbital 17 has an occupancy of       0.000000000000
 Orbital 18 has an occupancy of       0.000000000000
 Orbital 19 has an occupancy of       0.000000000000
 Orbital 20 has an occupancy of       0.000000000000
 Orbital 21 has an occupancy of       0.000000000000
 Orbital 22 has an occupancy of       0.000000000000
 Orbital 23 has an occupancy of       0.000000000000
 Orbital 24 has an occupancy of       0.000000000000
 Orbital 25 has an occupancy of       0.000000000000
 Orbital 26 has an occupancy of       0.000000000000
 Orbital 27 has an occupancy of       0.000000000000
 iter:16  failiter:16  energy:    -91.409521718206  total:    -76.169218110814  error:      0.000000965493
 Iter: 16  T:      340.000  val:           -0.363373
 Orbital 0 has an occupancy of       1.000000000000
 Orbital 1 has an occupancy of       1.000000000000
 Orbital 2 has an occupancy of       1.000000000000
 Orbital 3 has an occupancy of       1.000000000000
 Orbital 4 has an occupancy of       1.000000000000
 Orbital 5 has an occupancy of       1.000000000000
 Orbital 6 has an occupancy of       0.000000000000
 Orbital 7 has an occupancy of       0.000000000000
 Orbital 8 has an occupancy of       0.000000000000
 Orbital 9 has an occupancy of       0.000000000000
 Orbital 10 has an occupancy of       0.000000000000
 Orbital 11 has an occupancy of       0.000000000000
 Orbital 12 has an occupancy of       0.000000000000
 Orbital 13 has an occupancy of       0.000000000000
 Orbital 14 has an occupancy of       0.000000000000
 Orbital 15 has an occupancy of       0.000000000000
 Orbital 16 has an occupancy of       0.000000000000
 Orbital 17 has an occupancy of       0.000000000000
 Orbital 18 has an occupancy of       0.000000000000
 Orbital 19 has an occupancy of       0.000000000000
 Orbital 20 has an occupancy of       0.000000000000
 Orbital 21 has an occupancy of       0.000000000000
 Orbital 22 has an occupancy of       0.000000000000
 Orbital 23 has an occupancy of       0.000000000000
 Orbital 24 has an occupancy of       0.000000000000
 Orbital 25 has an occupancy of       0.000000000000
 Orbital 26 has an occupancy of       0.000000000000
 Orbital 27 has an occupancy of       0.000000000000
 iter:17  failiter:17  energy:    -91.409522098166  total:    -76.169218490774  error:     -0.000000379961
 Iter: 17  T:      330.000  val:           -0.363373
 Orbital 0 has an occupancy of       1.000000000000
 Orbital 1 has an occupancy of       1.000000000000
 Orbital 2 has an occupancy of       1.000000000000
 Orbital 3 has an occupancy of       1.000000000000
 Orbital 4 has an occupancy of       1.000000000000
 Orbital 5 has an occupancy of       1.000000000000
 Orbital 6 has an occupancy of       0.000000000000
 Orbital 7 has an occupancy of       0.000000000000
 Orbital 8 has an occupancy of       0.000000000000
 Orbital 9 has an occupancy of       0.000000000000
 Orbital 10 has an occupancy of       0.000000000000
 Orbital 11 has an occupancy of       0.000000000000
 Orbital 12 has an occupancy of       0.000000000000
 Orbital 13 has an occupancy of       0.000000000000
 Orbital 14 has an occupancy of       0.000000000000
 Orbital 15 has an occupancy of       0.000000000000
 Orbital 16 has an occupancy of       0.000000000000
 Orbital 17 has an occupancy of       0.000000000000
 Orbital 18 has an occupancy of       0.000000000000
 Orbital 19 has an occupancy of       0.000000000000
 Orbital 20 has an occupancy of       0.000000000000
 Orbital 21 has an occupancy of       0.000000000000
 Orbital 22 has an occupancy of       0.000000000000
 Orbital 23 has an occupancy of       0.000000000000
 Orbital 24 has an occupancy of       0.000000000000
 Orbital 25 has an occupancy of       0.000000000000
 Orbital 26 has an occupancy of       0.000000000000
 Orbital 27 has an occupancy of       0.000000000000
 iter:18  failiter:18  energy:    -91.409522004382  total:    -76.169218396990  error:      0.000000093785
 Iter: 18  T:      320.000  val:           -0.363373
 Orbital 0 has an occupancy of       1.000000000000
 Orbital 1 has an occupancy of       1.000000000000
 Orbital 2 has an occupancy of       1.000000000000
 Orbital 3 has an occupancy of       1.000000000000
 Orbital 4 has an occupancy of       1.000000000000
 Orbital 5 has an occupancy of       1.000000000000
 Orbital 6 has an occupancy of       0.000000000000
 Orbital 7 has an occupancy of       0.000000000000
 Orbital 8 has an occupancy of       0.000000000000
 Orbital 9 has an occupancy of       0.000000000000
 Orbital 10 has an occupancy of       0.000000000000
 Orbital 11 has an occupancy of       0.000000000000
 Orbital 12 has an occupancy of       0.000000000000
 Orbital 13 has an occupancy of       0.000000000000
 Orbital 14 has an occupancy of       0.000000000000
 Orbital 15 has an occupancy of       0.000000000000
 Orbital 16 has an occupancy of       0.000000000000
 Orbital 17 has an occupancy of       0.000000000000
 Orbital 18 has an occupancy of       0.000000000000
 Orbital 19 has an occupancy of       0.000000000000
 Orbital 20 has an occupancy of       0.000000000000
 Orbital 21 has an occupancy of       0.000000000000
 Orbital 22 has an occupancy of       0.000000000000
 Orbital 23 has an occupancy of       0.000000000000
 Orbital 24 has an occupancy of       0.000000000000
 Orbital 25 has an occupancy of       0.000000000000
 Orbital 26 has an occupancy of       0.000000000000
 Orbital 27 has an occupancy of       0.000000000000
 iter:19  failiter:19  energy:    -91.409522044664  total:    -76.169218437272  error:     -0.000000040283
 Iter: 19  T:      310.000  val:           -0.363373
 Orbital 0 has an occupancy of       1.000000000000
 Orbital 1 has an occupancy of       1.000000000000
 Orbital 2 has an occupancy of       1.000000000000
 Orbital 3 has an occupancy of       1.000000000000
 Orbital 4 has an occupancy of       1.000000000000
 Orbital 5 has an occupancy of       1.000000000000
 Orbital 6 has an occupancy of       0.000000000000
 Orbital 7 has an occupancy of       0.000000000000
 Orbital 8 has an occupancy of       0.000000000000
 Orbital 9 has an occupancy of       0.000000000000
 Orbital 10 has an occupancy of       0.000000000000
 Orbital 11 has an occupancy of       0.000000000000
 Orbital 12 has an occupancy of       0.000000000000
 Orbital 13 has an occupancy of       0.000000000000
 Orbital 14 has an occupancy of       0.000000000000
 Orbital 15 has an occupancy of       0.000000000000
 Orbital 16 has an occupancy of       0.000000000000
 Orbital 17 has an occupancy of       0.000000000000
 Orbital 18 has an occupancy of       0.000000000000
 Orbital 19 has an occupancy of       0.000000000000
 Orbital 20 has an occupancy of       0.000000000000
 Orbital 21 has an occupancy of       0.000000000000
 Orbital 22 has an occupancy of       0.000000000000
 Orbital 23 has an occupancy of       0.000000000000
 Orbital 24 has an occupancy of       0.000000000000
 Orbital 25 has an occupancy of       0.000000000000
 Orbital 26 has an occupancy of       0.000000000000
 Orbital 27 has an occupancy of       0.000000000000
 iter:20  failiter:20  energy:    -91.409522035759  total:    -76.169218428367  error:      0.000000008906
*** PSI4 exiting successfully. Buy a developer a beer!
