    -----------------------------------------------------------------------
          PSI4: An Open-Source Ab Initio Electronic Structure Package
                              PSI 4.0 Driver

               Git: Rev {master} 556e8139d3cfa1f96ccffe2cdf22cc56a185d2b2

    J. M. Turney, A. C. Simmonett, R. M. Parrish, E. G. Hohenstein,
    F. A. Evangelista, J. T. Fermann, B. J. Mintz, L. A. Burns, J. J. Wilke,
    M. L. Abrams, N. J. Russ, M. L. Leininger, C. L. Janssen, E. T. Seidl,
    W. D. Allen, H. F. Schaefer, R. A. King, E. F. Valeev, C. D. Sherrill,
    and T. D. Crawford, WIREs Comput. Mol. Sci. 2, 556-565 (2012)
    (doi: 10.1002/wcms.93)

                         Additional Contributions by
    A. E. DePrince, M. Saitow, U. Bozkaya, A. Yu. Sokolov
    -----------------------------------------------------------------------

    Process ID:   6501
    PSI4DATADIR: /Users/kevinhannon/Programs/psi4cmake/psi4/lib
    Memory level set to 256.000 MB

  ==> Input File <==

--------------------------------------------------------------------------

# PYTHONPATH must include directory above plugin directory.
#     Define either externally or here, then import plugin.
sys.path.insert(0, './..')
import scf

molecule {
0 1
H
O 1 1.2
H 2 1.2 1 104.5
symmetry c1
units angstrom
}


set {
  basis 6-31g
  reference rhf
  scf_type  pk
}

set scf {
  print 1
  DO_FTHF true
  MAX_ITER 70
}
energy('rhf')
energy('scf')

scf.exampleFN()

--------------------------------------------------------------------------

*** tstart() called on Kevins-MacBook-Pro.local
*** at Sun Feb 15 14:38:33 2015

/Users/kevinhannon/Programs/Quantum_Programs/Quantum-Programs/GS/scf/scf.so loaded.

*** tstart() called on Kevins-MacBook-Pro.local
*** at Sun Feb 15 14:38:33 2015


         ---------------------------------------------------------
                                   SCF
            by Justin Turney, Rob Parrish, and Andy Simmonett
                              RHF Reference
                        1 Threads,    256 MiB Core
         ---------------------------------------------------------

  ==> Geometry <==

    Molecular point group: c1
    Full point group: C2v

    Geometry (in Angstrom), charge = 0, multiplicity = 1:

       Center              X                  Y                   Z       
    ------------   -----------------  -----------------  -----------------
           H          0.000000000000     0.948827488493    -0.652441272869
           O          0.000000000000     0.000000000000     0.082219463172
           H          0.000000000000    -0.948827488493    -0.652441272869

  Running in c1 symmetry.

  Rotational constants: A =     17.44830  B =      9.28981  C =      6.06219 [cm^-1]
  Rotational constants: A = 523086.85129  B = 278501.50283  C = 181739.75887 [MHz]
  Nuclear repulsion =    7.334554608310059

  Charge       = 0
  Multiplicity = 1
  Electrons    = 10
  Nalpha       = 5
  Nbeta        = 5

  ==> Algorithm <==

  SCF Algorithm Type is PK.
  DIIS enabled.
  MOM disabled.
  Fractional occupation disabled.
  Guess Type is CORE.
  Energy threshold   = 1.00e-06
  Density threshold  = 1.00e-06
  Integral threshold = 0.00e+00

  ==> Primary Basis <==

  Basis Set: 6-31G
    Number of shells: 9
    Number of basis function: 13
    Number of Cartesian functions: 13
    Spherical Harmonics?: false
    Max angular momentum: 1

  ==> Pre-Iterations <==

   -------------------------------------------------------
    Irrep   Nso     Nmo     Nalpha   Nbeta   Ndocc  Nsocc
   -------------------------------------------------------
     A         13      13       0       0       0       0
   -------------------------------------------------------
    Total      13      13       5       5       5       0
   -------------------------------------------------------

  Starting with a DF guess...

 OEINTS: Overlap, kinetic, potential, dipole, and quadrupole integrals
         stored in file 35.

  ==> Integral Setup <==

  ==> DFJK: Density-Fitted J/K Matrices <==

    J tasked:                  Yes
    K tasked:                  Yes
    wK tasked:                  No
    OpenMP threads:              1
    Integrals threads:           1
    Memory (MB):               183
    Algorithm:                Core
    Integral Cache:           NONE
    Schwarz Cutoff:          1E-12
    Fitting Condition:       1E-12

   => Auxiliary Basis Set <=

  Basis Set: 
    Number of shells: 42
    Number of basis function: 131
    Number of Cartesian functions: 131
    Spherical Harmonics?: false
    Max angular momentum: 3

  Minimum eigenvalue in the overlap matrix is 1.0515875100E-01.
  Using Symmetric Orthogonalization.
  SCF Guess: Core (One-Electron) Hamiltonian.

  ==> Iterations <==

                           Total Energy        Delta E     RMS |[F,P]|

   @DF-RHF iter   1:   -69.26800043750752   -6.92680e+01   1.90328e-01 
   @DF-RHF iter   2:   -70.64731790372517   -1.37932e+00   1.91707e-01 DIIS
   @DF-RHF iter   3:   -75.86478056395343   -5.21746e+00   2.06258e-02 DIIS
   @DF-RHF iter   4:   -75.90689408256928   -4.21135e-02   3.74562e-03 DIIS
   @DF-RHF iter   5:   -75.91010020466391   -3.20612e-03   1.74203e-03 DIIS
   @DF-RHF iter   6:   -75.91056312870894   -4.62924e-04   4.95166e-04 DIIS
   @DF-RHF iter   7:   -75.91063830444300   -7.51757e-05   3.05717e-04 DIIS
   @DF-RHF iter   8:   -75.91064807358099   -9.76914e-06   5.92036e-05 DIIS
   @DF-RHF iter   9:   -75.91064843726933   -3.63688e-07   9.58947e-06 DIIS
   @DF-RHF iter  10:   -75.91064844567705   -8.40772e-09   6.23343e-07 DIIS

  DF guess converged.

  ==> Integral Setup <==

 MINTS: Wrapper to libmints.
   by Justin Turney

   Calculation information:
      Number of atoms:                   3
      Number of AO shells:               9
      Number of SO shells:               9
      Number of primitives:             22
      Number of atomic orbitals:        13
      Number of basis functions:        13

      Number of irreps:                  1
      Integral cutoff                 0.00e+00
      Number of functions per irrep: [  13 ]

 OEINTS: Overlap, kinetic, potential, dipole, and quadrupole integrals
         stored in file 35.

      Computing two-electron integrals...done
      Computed 2280 non-zero two-electron integrals.
        Stored in file 33.

	Batch   1 pq = [       0,      91] index = [             0,4186]
  ==> DiskJK: Disk-Based J/K Matrices <==

    J tasked:                  Yes
    K tasked:                  Yes
    wK tasked:                  No
    Memory (MB):               183
    Schwarz Cutoff:          1E-12

   @RHF iter  11:   -75.91066234653789   -1.39009e-05   1.36145e-06 DIIS
   @RHF iter  12:   -75.91066234674052   -2.02633e-10   3.94378e-07 DIIS

  ==> Post-Iterations <==

    Orbital Energies (a.u.)
    -----------------------

    Doubly Occupied:                                                      

       1A    -20.605821     2A     -1.263187     3A     -0.596740  
       4A     -0.524115     5A     -0.495652  

    Virtual:                                                              

       6A      0.137533     7A      0.219650     8A      0.961653  
       9A      0.982812    10A      1.162430    11A      1.240249  
      12A      1.372207    13A      1.643941  

    Final Occupation by Irrep:
              A 
    DOCC [     5 ]

  Energy converged.

  @RHF Final Energy:   -75.91066234674052

   => Energetics <=

    Nuclear Repulsion Energy =              7.3345546083100590
    One-Electron Energy =                -119.5194034841520505
    Two-Electron Energy =                  36.2741865291014633
    DFT Exchange-Correlation Energy =       0.0000000000000000
    Empirical Dispersion Energy =           0.0000000000000000
    PCM Polarization Energy =               0.0000000000000000
    EFP Energy =                            0.0000000000000000
    Total Energy =                        -75.9106623467405370

    Alert: EFP and PCM quantities not currently incorporated into SCF psivars.

Properties will be evaluated at   0.000000,   0.000000,   0.000000 Bohr
  ==> Properties <==


Properties computed using the SCF density matrix

  Nuclear Dipole Moment: (a.u.)
     X:     0.0000      Y:     0.0000      Z:    -1.2229

  Electronic Dipole Moment: (a.u.)
     X:     0.0000      Y:    -0.0000      Z:     0.1867

  Dipole Moment: (a.u.)
     X:     0.0000      Y:    -0.0000      Z:    -1.0362     Total:     1.0362

  Dipole Moment: (Debye)
     X:     0.0000      Y:    -0.0000      Z:    -2.6338     Total:     2.6338


  Saving occupied orbitals to File 180.

*** tstop() called on Kevins-MacBook-Pro.local at Sun Feb 15 14:38:33 2015
Module time:
	user time   =       0.26 seconds =       0.00 minutes
	system time =       0.02 seconds =       0.00 minutes
	total time  =          0 seconds =       0.00 minutes
Total time:
	user time   =       0.27 seconds =       0.00 minutes
	system time =       0.02 seconds =       0.00 minutes
	total time  =          0 seconds =       0.00 minutes

*** tstart() called on Kevins-MacBook-Pro.local
*** at Sun Feb 15 14:38:33 2015


         ---------------------------------------------------------
                                   SCF
            by Justin Turney, Rob Parrish, and Andy Simmonett
                              RHF Reference
                        1 Threads,    256 MiB Core
         ---------------------------------------------------------

  ==> Geometry <==

    Molecular point group: c1
    Full point group: C2v

    Geometry (in Angstrom), charge = 0, multiplicity = 1:

       Center              X                  Y                   Z       
    ------------   -----------------  -----------------  -----------------
           H          0.000000000000     0.948827488493    -0.652441272869
           O          0.000000000000     0.000000000000     0.082219463172
           H          0.000000000000    -0.948827488493    -0.652441272869

  Running in c1 symmetry.

  Rotational constants: A =     17.44830  B =      9.28981  C =      6.06219 [cm^-1]
  Rotational constants: A = 523086.85129  B = 278501.50283  C = 181739.75887 [MHz]
  Nuclear repulsion =    7.334554608310060

  Charge       = 0
  Multiplicity = 1
  Electrons    = 10
  Nalpha       = 5
  Nbeta        = 5

  ==> Algorithm <==

  SCF Algorithm Type is PK.
  DIIS enabled.
  MOM disabled.
  Fractional occupation disabled.
  Guess Type is CORE.
  Energy threshold   = 1.00e-08
  Density threshold  = 1.00e-08
  Integral threshold = 0.00e+00

  ==> Primary Basis <==

  Basis Set: 6-31G
    Number of shells: 9
    Number of basis function: 13
    Number of Cartesian functions: 13
    Spherical Harmonics?: false
    Max angular momentum: 1

  ==> Pre-Iterations <==

   -------------------------------------------------------
    Irrep   Nso     Nmo     Nalpha   Nbeta   Ndocc  Nsocc
   -------------------------------------------------------
     A         13      13       0       0       0       0
   -------------------------------------------------------
    Total      13      13       5       5       5       0
   -------------------------------------------------------

  Starting with a DF guess...

 OEINTS: Overlap, kinetic, potential, dipole, and quadrupole integrals
         stored in file 35.

  ==> Integral Setup <==

  ==> DFJK: Density-Fitted J/K Matrices <==

    J tasked:                  Yes
    K tasked:                  Yes
    wK tasked:                  No
    OpenMP threads:              1
    Integrals threads:           1
    Memory (MB):               183
    Algorithm:                Core
    Integral Cache:           NONE
    Schwarz Cutoff:          1E-12
    Fitting Condition:       1E-12

   => Auxiliary Basis Set <=

  Basis Set: 
    Number of shells: 42
    Number of basis function: 131
    Number of Cartesian functions: 131
    Spherical Harmonics?: false
    Max angular momentum: 3

  Minimum eigenvalue in the overlap matrix is 1.0515875100E-01.
  Using Symmetric Orthogonalization.
  SCF Guess: Core (One-Electron) Hamiltonian.

  ==> Iterations <==

                           Total Energy        Delta E     RMS |[F,P]|

   @DF-RHF iter   1:   -69.26800043749255   -6.92680e+01   1.90328e-01 
   @DF-RHF iter   2:   -70.64731790372581   -1.37932e+00   1.91707e-01 DIIS
   @DF-RHF iter   3:   -75.86478056394567   -5.21746e+00   2.06258e-02 DIIS
   @DF-RHF iter   4:   -75.90689408256168   -4.21135e-02   3.74562e-03 DIIS
   @DF-RHF iter   5:   -75.91010020465630   -3.20612e-03   1.74203e-03 DIIS
   @DF-RHF iter   6:   -75.91056312870131   -4.62924e-04   4.95166e-04 DIIS
   @DF-RHF iter   7:   -75.91063830443539   -7.51757e-05   3.05717e-04 DIIS
   @DF-RHF iter   8:   -75.91064807357337   -9.76914e-06   5.92036e-05 DIIS
   @DF-RHF iter   9:   -75.91064843726177   -3.63688e-07   9.58947e-06 DIIS
   @DF-RHF iter  10:   -75.91064844566947   -8.40770e-09   6.23343e-07 DIIS
   @DF-RHF iter  11:   -75.91064844574474   -7.52749e-11   1.23816e-07 DIIS
   @DF-RHF iter  12:   -75.91064844574581   -1.06581e-12   8.98771e-09 DIIS

  DF guess converged.

  ==> Integral Setup <==

 MINTS: Wrapper to libmints.
   by Justin Turney

   Calculation information:
      Number of atoms:                   3
      Number of AO shells:               9
      Number of SO shells:               9
      Number of primitives:             22
      Number of atomic orbitals:        13
      Number of basis functions:        13

      Number of irreps:                  1
      Integral cutoff                 0.00e+00
      Number of functions per irrep: [  13 ]

 OEINTS: Overlap, kinetic, potential, dipole, and quadrupole integrals
         stored in file 35.

      Computing two-electron integrals...done
      Computed 2280 non-zero two-electron integrals.
        Stored in file 33.

	Batch   1 pq = [       0,      91] index = [             0,4186]
  ==> DiskJK: Disk-Based J/K Matrices <==

    J tasked:                  Yes
    K tasked:                  Yes
    wK tasked:                  No
    Memory (MB):               183
    Schwarz Cutoff:          1E-12

   @RHF iter  13:   -75.91066234653002   -1.39008e-05   1.41646e-06 DIIS
   @RHF iter  14:   -75.91066234673666   -2.06640e-10   4.55611e-07 DIIS
   @RHF iter  15:   -75.91066234675269   -1.60298e-11   2.73400e-07 DIIS
   @RHF iter  16:   -75.91066234675779   -5.10170e-12   2.09579e-08 DIIS
   @RHF iter  17:   -75.91066234675789   -9.94760e-14   4.41713e-09 DIIS

  ==> Post-Iterations <==

    Orbital Energies (a.u.)
    -----------------------

    Doubly Occupied:                                                      

       1A    -20.605817     2A     -1.263185     3A     -0.596738  
       4A     -0.524114     5A     -0.495650  

    Virtual:                                                              

       6A      0.137534     7A      0.219651     8A      0.961654  
       9A      0.982812    10A      1.162431    11A      1.240251  
      12A      1.372209    13A      1.643943  

    Final Occupation by Irrep:
              A 
    DOCC [     5 ]

  Energy converged.

  @RHF Final Energy:   -75.91066234675789

   => Energetics <=

    Nuclear Repulsion Energy =              7.3345546083100599
    One-Electron Energy =                -119.5194242098575188
    Two-Electron Energy =                  36.2742072547895873
    DFT Exchange-Correlation Energy =       0.0000000000000000
    Empirical Dispersion Energy =           0.0000000000000000
    PCM Polarization Energy =               0.0000000000000000
    EFP Energy =                            0.0000000000000000
    Total Energy =                        -75.9106623467578743

    Alert: EFP and PCM quantities not currently incorporated into SCF psivars.

Properties will be evaluated at   0.000000,   0.000000,   0.000000 Bohr
  ==> Properties <==


Properties computed using the SCF density matrix

  Nuclear Dipole Moment: (a.u.)
     X:     0.0000      Y:     0.0000      Z:    -1.2229

  Electronic Dipole Moment: (a.u.)
     X:     0.0000      Y:    -0.0000      Z:     0.1867

  Dipole Moment: (a.u.)
     X:     0.0000      Y:    -0.0000      Z:    -1.0362     Total:     1.0362

  Dipole Moment: (Debye)
     X:     0.0000      Y:    -0.0000      Z:    -2.6338     Total:     2.6338


  Saving occupied orbitals to File 180.

*** tstop() called on Kevins-MacBook-Pro.local at Sun Feb 15 14:38:33 2015
Module time:
	user time   =       0.24 seconds =       0.00 minutes
	system time =       0.01 seconds =       0.00 minutes
	total time  =          0 seconds =       0.00 minutes
Total time:
	user time   =       0.52 seconds =       0.01 minutes
	system time =       0.03 seconds =       0.00 minutes
	total time  =          0 seconds =       0.00 minutes
Reading options from the SCF block
Calling plugin scf.so.
    Molecular point group: c1
    Full point group: C2v

    Geometry (in Angstrom), charge = 0, multiplicity = 1:

       Center              X                  Y                   Z       
    ------------   -----------------  -----------------  -----------------
           H          0.000000000000     0.948827488493    -0.652441272869
           O          0.000000000000     0.000000000000     0.082219463172
           H          0.000000000000    -0.948827488493    -0.652441272869


    Nuclear repulsion energy:       7.33455461

  ## Overlap (Symmetry 0) ##
  Irrep: 1 Size: 13 x 13

                 1                   2                   3                   4                   5

    1     1.00000000000000     0.65829204933933     0.01148757429551     0.11705130815147     0.00000000000000
    2     0.65829204933933     1.00000000000000     0.05134661098811     0.29399112627054     0.00000000000000
    3     0.01148757429551     0.05134661098811     1.00000000000000     0.23368990605916     0.00000000000000
    4     0.11705130815147     0.29399112627054     0.23368990605916     1.00000000000000     0.00000000000000
    5     0.00000000000000     0.00000000000000     0.00000000000000     0.00000000000000     1.00000000000000
    6     0.12490640770895     0.11256668532741     0.00000000000000     0.00000000000000     0.00000000000000
    7    -0.09671287408581    -0.08715844017942     0.00000000000000    -0.00000000000000     0.00000000000000
    8     0.29661250084111     0.56639616593954     0.16727975959590     0.76364077333844     0.00000000000000
    9     0.00000000000000     0.00000000000000     0.00000000000000     0.00000000000000     0.50152064107481
   10     0.40018582658628     0.39467045911291     0.00000000000000     0.00000000000000     0.00000000000000
   11    -0.30985697345285    -0.30558651968052    -0.00000000000000     0.00000000000000     0.00000000000000
   12     0.01112331511595     0.12184418033055     0.01148757429551     0.11705130815147     0.00000000000000
   13     0.12184418033055     0.35451826002972     0.05134661098811     0.29399112627054     0.00000000000000

                 6                   7                   8                   9                  10

    1     0.12490640770895    -0.09671287408581     0.29661250084111     0.00000000000000     0.40018582658628
    2     0.11256668532741    -0.08715844017942     0.56639616593954     0.00000000000000     0.39467045911291
    3     0.00000000000000     0.00000000000000     0.16727975959590     0.00000000000000     0.00000000000000
    4     0.00000000000000    -0.00000000000000     0.76364077333844     0.00000000000000     0.00000000000000
    5     0.00000000000000     0.00000000000000     0.00000000000000     0.50152064107481     0.00000000000000
    6     1.00000000000000     0.00000000000000     0.00000000000000     0.00000000000000     0.50152064107481
    7     0.00000000000000     1.00000000000000    -0.00000000000000     0.00000000000000     0.00000000000000
    8     0.00000000000000    -0.00000000000000     1.00000000000000     0.00000000000000     0.00000000000000
    9     0.00000000000000     0.00000000000000     0.00000000000000     1.00000000000000     0.00000000000000
   10     0.50152064107481     0.00000000000000     0.00000000000000     0.00000000000000     1.00000000000000
   11     0.00000000000000     0.50152064107481     0.00000000000000     0.00000000000000     0.00000000000000
   12    -0.12490640770895    -0.09671287408581     0.29661250084111     0.00000000000000    -0.40018582658628
   13    -0.11256668532741    -0.08715844017942     0.56639616593954     0.00000000000000    -0.39467045911291

                11                  12                  13

    1    -0.30985697345285     0.01112331511595     0.12184418033055
    2    -0.30558651968052     0.12184418033055     0.35451826002972
    3    -0.00000000000000     0.01148757429551     0.05134661098811
    4     0.00000000000000     0.11705130815147     0.29399112627054
    5     0.00000000000000     0.00000000000000     0.00000000000000
    6     0.00000000000000    -0.12490640770895    -0.11256668532741
    7     0.50152064107481    -0.09671287408581    -0.08715844017942
    8     0.00000000000000     0.29661250084111     0.56639616593954
    9     0.00000000000000     0.00000000000000     0.00000000000000
   10     0.00000000000000    -0.40018582658628    -0.39467045911291
   11     1.00000000000000    -0.30985697345285    -0.30558651968052
   12    -0.30985697345285     1.00000000000000     0.65829204933933
   13    -0.30558651968052     0.65829204933933     1.00000000000000



  ## Kinetic (Symmetry 0) ##
  Irrep: 1 Size: 13 x 13

                 1                   2                   3                   4                   5

    1     1.39567828129884     0.25973508272539    -0.02136146034028    -0.05644258470321     0.00000000000000
    2     0.25973508272539     0.24191670000000     0.01115134224063     0.06419258123320     0.00000000000000
    3    -0.02136146034028     0.01115134224063    29.54013979782046    -2.18540272990870     0.00000000000000
    4    -0.05644258470321     0.06419258123320    -2.18540272990870     1.71121096021167     0.00000000000000
    5     0.00000000000000     0.00000000000000     0.00000000000000     0.00000000000000     4.25187706102758
    6     0.01816772677992     0.05626465428753     0.00000000000000     0.00000000000000     0.00000000000000
    7    -0.01406695704984    -0.04356475000282     0.00000000000000    -0.00000000000000     0.00000000000000
    8     0.05648579647125     0.11217860949831     0.13128249932024     0.48004782078660     0.00000000000000
    9     0.00000000000000     0.00000000000000     0.00000000000000     0.00000000000000     0.54724322382249
   10     0.23297781517059     0.15786552114765     0.00000000000000     0.00000000000000     0.00000000000000
   11    -0.18039069825690    -0.12223254634637     0.00000000000000    -0.00000000000000     0.00000000000000
   12    -0.01984860088449    -0.00597196091262    -0.02136146034028    -0.05644258470321     0.00000000000000
   13    -0.00597196091262     0.02647271486733     0.01115134224063     0.06419258123320     0.00000000000000

                 6                   7                   8                   9                  10

    1     0.01816772677992    -0.01406695704984     0.05648579647125     0.00000000000000     0.23297781517059
    2     0.05626465428753    -0.04356475000282     0.11217860949831     0.00000000000000     0.15786552114765
    3     0.00000000000000     0.00000000000000     0.13128249932024     0.00000000000000     0.00000000000000
    4     0.00000000000000    -0.00000000000000     0.48004782078660     0.00000000000000     0.00000000000000
    5     0.00000000000000     0.00000000000000     0.00000000000000     0.54724322382249     0.00000000000000
    6     4.25187706102758     0.00000000000000     0.00000000000000     0.00000000000000     0.54724322382249
    7     0.00000000000000     4.25187706102758    -0.00000000000000     0.00000000000000     0.00000000000000
    8     0.00000000000000    -0.00000000000000     0.40500870000000     0.00000000000000     0.00000000000000
    9     0.00000000000000     0.00000000000000     0.00000000000000     0.67501450000000     0.00000000000000
   10     0.54724322382249     0.00000000000000     0.00000000000000     0.00000000000000     0.67501450000000
   11     0.00000000000000     0.54724322382249     0.00000000000000     0.00000000000000     0.00000000000000
   12    -0.01816772677992    -0.01406695704984     0.05648579647125     0.00000000000000    -0.23297781517059
   13    -0.05626465428753    -0.04356475000282     0.11217860949831     0.00000000000000    -0.15786552114765

                11                  12                  13

    1    -0.18039069825690    -0.01984860088449    -0.00597196091262
    2    -0.12223254634637    -0.00597196091262     0.02647271486733
    3     0.00000000000000    -0.02136146034028     0.01115134224063
    4    -0.00000000000000    -0.05644258470321     0.06419258123320
    5     0.00000000000000     0.00000000000000     0.00000000000000
    6     0.00000000000000    -0.01816772677992    -0.05626465428753
    7     0.54724322382249    -0.01406695704984    -0.04356475000282
    8     0.00000000000000     0.05648579647125     0.11217860949831
    9     0.00000000000000     0.00000000000000     0.00000000000000
   10     0.00000000000000    -0.23297781517059    -0.15786552114765
   11     0.67501450000000    -0.18039069825690    -0.12223254634637
   12    -0.18039069825690     1.39567828129884     0.25973508272539
   13    -0.12223254634637     0.25973508272539     0.24191670000000



  ## Potential (Symmetry 0) ##
  Irrep: 1 Size: 13 x 13

                 1                   2                   3                   4                   5

    1    -5.45927166049692    -3.23979803727546    -0.34841018513131    -1.00580260528393     0.00000000000000
    2    -3.23979803727546    -4.20461202416982    -1.65186903728743    -2.79443736648442     0.00000000000000
    3    -0.34841018513131    -1.65186903728743   -62.36316276366335    -5.12994912222778     0.00000000000000
    4    -1.00580260528393    -2.79443736648442    -5.12994912222779   -11.41313780490121     0.00000000000000
    5     0.00000000000000     0.00000000000000     0.00000000000000     0.00000000000000   -12.48846052660764
    6    -0.97343410140647    -0.89834918459231     0.00000000000000     0.00000000000000     0.00000000000000
    7     0.76180807364193     0.73669888350801     0.01731235852650     0.11810888034971     0.00000000000000
    8    -1.81845668605250    -3.57840191958222    -5.46593620547379    -7.70334459829637     0.00000000000000
    9     0.00000000000000     0.00000000000000     0.00000000000000     0.00000000000000    -4.18899284342011
   10    -2.17171928994430    -1.86006679559741     0.00000000000000     0.00000000000000     0.00000000000000
   11     1.69633520960310     1.53403766276826     0.00238561176095     0.07802093569073     0.00000000000000
   12    -0.07460715274247    -0.69539456563165    -0.34841018513131    -1.00580260528394     0.00000000000000
   13    -0.69539456563165    -1.83807878968366    -1.65186903728744    -2.79443736648443     0.00000000000000

                 6                   7                   8                   9                  10

    1    -0.97343410140647     0.76180807364193    -1.81845668605250     0.00000000000000    -2.17171928994429
    2    -0.89834918459231     0.73669888350801    -3.57840191958222     0.00000000000000    -1.86006679559741
    3     0.00000000000000     0.01731235852650    -5.46593620547379     0.00000000000000     0.00000000000000
    4     0.00000000000000     0.11810888034971    -7.70334459829637     0.00000000000000     0.00000000000000
    5     0.00000000000000     0.00000000000000     0.00000000000000    -4.18899284342011     0.00000000000000
    6   -12.54410245146665    -0.00000000000000     0.00000000000000     0.00000000000000    -4.24509928320284
    7    -0.00000000000000   -12.52181862522723     0.11448587582907     0.00000000000000    -0.00000000000000
    8     0.00000000000000     0.11448587582907    -7.49925738045754     0.00000000000000     0.00000000000000
    9     0.00000000000000     0.00000000000000     0.00000000000000    -5.15077919678987     0.00000000000000
   10    -4.24509928320284    -0.00000000000000     0.00000000000000     0.00000000000000    -5.34375922401642
   11    -0.00000000000000    -4.22262942512013     0.19808294556282     0.00000000000000    -0.00000000000000
   12     0.97343410140648     0.76180807364193    -1.81845668605250     0.00000000000000     2.17171928994430
   13     0.89834918459231     0.73669888350802    -3.57840191958222     0.00000000000000     1.86006679559741

                11                  12                  13

    1     1.69633520960310    -0.07460715274247    -0.69539456563165
    2     1.53403766276826    -0.69539456563165    -1.83807878968366
    3     0.00238561176095    -0.34841018513131    -1.65186903728744
    4     0.07802093569073    -1.00580260528394    -2.79443736648443
    5     0.00000000000000     0.00000000000000     0.00000000000000
    6    -0.00000000000000     0.97343410140648     0.89834918459231
    7    -4.22262942512013     0.76180807364193     0.73669888350802
    8     0.19808294556282    -1.81845668605250    -3.57840191958222
    9     0.00000000000000     0.00000000000000     0.00000000000000
   10    -0.00000000000000     2.17171928994430     1.86006679559741
   11    -5.26647337516610     1.69633520960311     1.53403766276826
   12     1.69633520960311    -5.45927166049692    -3.23979803727546
   13     1.53403766276826    -3.23979803727546    -4.20461202416982



  ## One Electron Ints (Symmetry 0) ##
  Irrep: 1 Size: 13 x 13

                 1                   2                   3                   4                   5

    1    -4.06359337919808    -2.98006295455007    -0.36977164547159    -1.06224518998714     0.00000000000000
    2    -2.98006295455007    -3.96269532416982    -1.64071769504680    -2.73024478525122     0.00000000000000
    3    -0.36977164547159    -1.64071769504680   -32.82302296584289    -7.31535185213648     0.00000000000000
    4    -1.06224518998714    -2.73024478525122    -7.31535185213648    -9.70192684468955     0.00000000000000
    5     0.00000000000000     0.00000000000000     0.00000000000000     0.00000000000000    -8.23658346558006
    6    -0.95526637462656    -0.84208453030479     0.00000000000000     0.00000000000000     0.00000000000000
    7     0.74774111659209     0.69313413350519     0.01731235852650     0.11810888034971     0.00000000000000
    8    -1.76197088958125    -3.46622331008390    -5.33465370615355    -7.22329677750976     0.00000000000000
    9     0.00000000000000     0.00000000000000     0.00000000000000     0.00000000000000    -3.64174961959762
   10    -1.93874147477371    -1.70220127444976     0.00000000000000     0.00000000000000     0.00000000000000
   11     1.51594451134620     1.41180511642189     0.00238561176095     0.07802093569073     0.00000000000000
   12    -0.09445575362696    -0.70136652654427    -0.36977164547159    -1.06224518998715     0.00000000000000
   13    -0.70136652654427    -1.81160607481633    -1.64071769504681    -2.73024478525123     0.00000000000000

                 6                   7                   8                   9                  10

    1    -0.95526637462656     0.74774111659209    -1.76197088958125     0.00000000000000    -1.93874147477371
    2    -0.84208453030479     0.69313413350519    -3.46622331008390     0.00000000000000    -1.70220127444976
    3     0.00000000000000     0.01731235852650    -5.33465370615355     0.00000000000000     0.00000000000000
    4     0.00000000000000     0.11810888034971    -7.22329677750976     0.00000000000000     0.00000000000000
    5     0.00000000000000     0.00000000000000     0.00000000000000    -3.64174961959762     0.00000000000000
    6    -8.29222539043907    -0.00000000000000     0.00000000000000     0.00000000000000    -3.69785605938035
    7    -0.00000000000000    -8.26994156419965     0.11448587582907     0.00000000000000    -0.00000000000000
    8     0.00000000000000     0.11448587582907    -7.09424868045754     0.00000000000000     0.00000000000000
    9     0.00000000000000     0.00000000000000     0.00000000000000    -4.47576469678987     0.00000000000000
   10    -3.69785605938035    -0.00000000000000     0.00000000000000     0.00000000000000    -4.66874472401642
   11    -0.00000000000000    -3.67538620129764     0.19808294556282     0.00000000000000    -0.00000000000000
   12     0.95526637462656     0.74774111659210    -1.76197088958126     0.00000000000000     1.93874147477371
   13     0.84208453030479     0.69313413350519    -3.46622331008391     0.00000000000000     1.70220127444976

                11                  12                  13

    1     1.51594451134620    -0.09445575362696    -0.70136652654427
    2     1.41180511642189    -0.70136652654427    -1.81160607481633
    3     0.00238561176095    -0.36977164547159    -1.64071769504681
    4     0.07802093569073    -1.06224518998715    -2.73024478525123
    5     0.00000000000000     0.00000000000000     0.00000000000000
    6    -0.00000000000000     0.95526637462656     0.84208453030479
    7    -3.67538620129764     0.74774111659210     0.69313413350519
    8     0.19808294556282    -1.76197088958126    -3.46622331008391
    9     0.00000000000000     0.00000000000000     0.00000000000000
   10    -0.00000000000000     1.93874147477371     1.70220127444976
   11    -4.59145887516610     1.51594451134620     1.41180511642189
   12     1.51594451134620    -4.06359337919808    -2.98006295455007
   13     1.41180511642189    -2.98006295455007    -3.96269532416982




	There are 0 unique integrals


 nocc = 5  ## SI (Symmetry 0) ##
  Irrep: 1 Size: 13 x 13

                 1                   2                   3                   4                   5

    1     3.08373670685122     0.00000000000000     0.00000000000000     0.00000000000000     0.00000000000000
    2     0.00000000000000     2.36523787833185     0.00000000000000     0.00000000000000     0.00000000000000
    3     0.00000000000000     0.00000000000000     1.69984035889850     0.00000000000000     0.00000000000000
    4     0.00000000000000     0.00000000000000     0.00000000000000     1.69646736725938     0.00000000000000
    5     0.00000000000000     0.00000000000000     0.00000000000000     0.00000000000000     1.54626611594495
    6     0.00000000000000     0.00000000000000     0.00000000000000     0.00000000000000     0.00000000000000
    7     0.00000000000000     0.00000000000000     0.00000000000000     0.00000000000000     0.00000000000000
    8     0.00000000000000     0.00000000000000     0.00000000000000     0.00000000000000     0.00000000000000
    9     0.00000000000000     0.00000000000000     0.00000000000000     0.00000000000000     0.00000000000000
   10     0.00000000000000     0.00000000000000     0.00000000000000     0.00000000000000     0.00000000000000
   11     0.00000000000000     0.00000000000000     0.00000000000000     0.00000000000000     0.00000000000000
   12     0.00000000000000     0.00000000000000     0.00000000000000     0.00000000000000     0.00000000000000
   13     0.00000000000000     0.00000000000000     0.00000000000000     0.00000000000000     0.00000000000000

                 6                   7                   8                   9                  10

    1     0.00000000000000     0.00000000000000     0.00000000000000     0.00000000000000     0.00000000000000
    2     0.00000000000000     0.00000000000000     0.00000000000000     0.00000000000000     0.00000000000000
    3     0.00000000000000     0.00000000000000     0.00000000000000     0.00000000000000     0.00000000000000
    4     0.00000000000000     0.00000000000000     0.00000000000000     0.00000000000000     0.00000000000000
    5     0.00000000000000     0.00000000000000     0.00000000000000     0.00000000000000     0.00000000000000
    6     1.41636899130317     0.00000000000000     0.00000000000000     0.00000000000000     0.00000000000000
    7     0.00000000000000     1.11922602344306     0.00000000000000     0.00000000000000     0.00000000000000
    8     0.00000000000000     0.00000000000000     1.05546957890667     0.00000000000000     0.00000000000000
    9     0.00000000000000     0.00000000000000     0.00000000000000     0.97735642306703     0.00000000000000
   10     0.00000000000000     0.00000000000000     0.00000000000000     0.00000000000000     0.81608302925354
   11     0.00000000000000     0.00000000000000     0.00000000000000     0.00000000000000     0.00000000000000
   12     0.00000000000000     0.00000000000000     0.00000000000000     0.00000000000000     0.00000000000000
   13     0.00000000000000     0.00000000000000     0.00000000000000     0.00000000000000     0.00000000000000

                11                  12                  13

    1     0.00000000000000     0.00000000000000     0.00000000000000
    2     0.00000000000000     0.00000000000000     0.00000000000000
    3     0.00000000000000     0.00000000000000     0.00000000000000
    4     0.00000000000000     0.00000000000000     0.00000000000000
    5     0.00000000000000     0.00000000000000     0.00000000000000
    6     0.00000000000000     0.00000000000000     0.00000000000000
    7     0.00000000000000     0.00000000000000     0.00000000000000
    8     0.00000000000000     0.00000000000000     0.00000000000000
    9     0.00000000000000     0.00000000000000     0.00000000000000
   10     0.00000000000000     0.00000000000000     0.00000000000000
   11     0.78032098291570     0.00000000000000     0.00000000000000
   12     0.00000000000000     0.67238872440359     0.00000000000000
   13     0.00000000000000     0.00000000000000     0.57664908158301



  ## S^-(1/2) (Symmetry 0) ##
  Irrep: 1 Size: 13 x 13

                 1                   2                   3                   4                   5

    1     1.30924755998763    -0.39725340721366     0.00761763581236     0.05840705259499     0.00000000000000
    2    -0.39725340721366     1.63965029388003     0.00442260220133     0.09036683238009     0.00000000000000
    3     0.00761763581236     0.00442260220133     1.02233680519670    -0.11102764166597    -0.00000000000000
    4     0.05840705259499     0.09036683238009    -0.11102764166597     1.50604233625514     0.00000000000000
    5     0.00000000000000     0.00000000000000    -0.00000000000000     0.00000000000000     1.11622601027835
    6     0.00792994640160     0.06397309208400    -0.00000000000000    -0.00000000000000     0.00000000000000
    7    -0.01328911970981    -0.03206695863494    -0.00123037410508    -0.02384495873073    -0.00000000000000
    8    -0.11561845737356    -0.48849063740932    -0.03102981376016    -0.85468190082269    -0.00000000000000
    9     0.00000000000000    -0.00000000000000    -0.00000000000000    -0.00000000000000    -0.30014298102481
   10    -0.16723140092637    -0.38268039720948     0.00000000000000     0.00000000000000    -0.00000000000000
   11     0.16323620243890     0.19688010088372     0.00728471528905     0.10586542090762     0.00000000000000
   12     0.01572237114239     0.03524209537955     0.00761763581236     0.05840705259499    -0.00000000000000
   13     0.03524209537955    -0.22914928605293     0.00442260220133     0.09036683238009     0.00000000000000

                 6                   7                   8                   9                  10

    1     0.00792994640160    -0.01328911970981    -0.11561845737356     0.00000000000000    -0.16723140092637
    2     0.06397309208400    -0.03206695863494    -0.48849063740932    -0.00000000000000    -0.38268039720948
    3    -0.00000000000000    -0.00123037410508    -0.03102981376016    -0.00000000000000     0.00000000000000
    4    -0.00000000000000    -0.02384495873073    -0.85468190082269    -0.00000000000000     0.00000000000000
    5     0.00000000000000    -0.00000000000000    -0.00000000000000    -0.30014298102481    -0.00000000000000
    6     1.13109197400576     0.00000000000000     0.00000000000000    -0.00000000000000    -0.36606907862651
    7     0.00000000000000     1.12353840436691     0.06324589985785     0.00000000000000    -0.00000000000000
    8     0.00000000000000     0.06324589985785     2.08220914106870     0.00000000000000    -0.00000000000000
    9    -0.00000000000000     0.00000000000000     0.00000000000000     1.11622601027835     0.00000000000000
   10    -0.36606907862651    -0.00000000000000    -0.00000000000000     0.00000000000000     1.49951979775665
   11    -0.00000000000000    -0.33288827261292    -0.33924664112213    -0.00000000000000     0.00000000000000
   12    -0.00792994640160    -0.01328911970981    -0.11561845737356    -0.00000000000000     0.16723140092637
   13    -0.06397309208400    -0.03206695863494    -0.48849063740932    -0.00000000000000     0.38268039720948

                11                  12                  13

    1     0.16323620243890     0.01572237114239     0.03524209537955
    2     0.19688010088372     0.03524209537955    -0.22914928605293
    3     0.00728471528905     0.00761763581236     0.00442260220133
    4     0.10586542090762     0.05840705259499     0.09036683238009
    5     0.00000000000000    -0.00000000000000     0.00000000000000
    6    -0.00000000000000    -0.00792994640160    -0.06397309208400
    7    -0.33288827261292    -0.01328911970981    -0.03206695863494
    8    -0.33924664112213    -0.11561845737356    -0.48849063740932
    9    -0.00000000000000    -0.00000000000000    -0.00000000000000
   10     0.00000000000000     0.16723140092637     0.38268039720948
   11     1.31042507521978     0.16323620243890     0.19688010088372
   12     0.16323620243890     1.30924755998763    -0.39725340721366
   13     0.19688010088372    -0.39725340721366     1.63965029388003



  ## Fock (Symmetry 0) ##
  Irrep: 1 Size: 13 x 13

                 1                   2                   3                   4                   5

    1    -3.52344691937847    -0.48082144691886     0.05869702380701    -0.00186316536582    -0.00000000000000
    2    -0.48082144691886    -2.57455804391439    -0.27576710622121    -0.34477162347448     0.00000000000000
    3     0.05869702380701    -0.27576710622121   -32.51253225692772    -2.17449219346010     0.00000000000000
    4    -0.00186316536582    -0.34477162347448    -2.17449219346011    -8.09624267734505    -0.00000000000000
    5    -0.00000000000000     0.00000000000000     0.00000000000000    -0.00000000000000    -8.22548875733536
    6    -0.10851864262480    -0.14901062121234     0.00000000000002     0.00000000000000    -0.00000000000000
    7     0.08138124121611     0.10115121755873    -0.00084618304199     0.11251668499863     0.00000000000000
    8    -0.20477537034999    -0.56639488523468    -1.68039387224030    -1.68993420747818     0.00000000000000
    9    -0.00000000000000     0.00000000000000     0.00000000000000     0.00000000000000    -0.60656117872359
   10    -0.26599803378161    -0.18611205979145    -0.00000000000001    -0.00000000000001     0.00000000000000
   11     0.22280005321220     0.13089431887386     0.02312737057011    -0.02028341518543     0.00000000000000
   12     0.05563044882297    -0.01043714870887     0.05869702380701    -0.00186316536581     0.00000000000000
   13    -0.01043714870887    -0.21880931589100    -0.27576710622124    -0.34477162347449    -0.00000000000000

                 6                   7                   8                   9                  10

    1    -0.10851864262480     0.08138124121611    -0.20477537034999    -0.00000000000000    -0.26599803378161
    2    -0.14901062121234     0.10115121755873    -0.56639488523468     0.00000000000000    -0.18611205979145
    3     0.00000000000002    -0.00084618304199    -1.68039387224031     0.00000000000000    -0.00000000000001
    4     0.00000000000000     0.11251668499863    -1.68993420747818     0.00000000000000    -0.00000000000001
    5    -0.00000000000000     0.00000000000000     0.00000000000000    -0.60656117872359     0.00000000000000
    6    -8.29097651343415    -0.00000000000000    -0.00000000000000     0.00000000000000    -0.54436657721173
    7    -0.00000000000000    -8.26094218851004    -0.02187151207260    -0.00000000000000     0.00000000000000
    8    -0.00000000000000    -0.02187151207260    -4.40402210781864    -0.00000000000000    -0.00000000000000
    9     0.00000000000000    -0.00000000000000    -0.00000000000000    -3.87845350262548    -0.00000000000000
   10    -0.54436657721173     0.00000000000000     0.00000000000000    -0.00000000000000    -3.83874654436542
   11    -0.00000000000000    -0.57917506592137     0.01141090606230     0.00000000000000     0.00000000000000
   12     0.10851864262480     0.08138124121611    -0.20477537035000     0.00000000000000     0.26599803378161
   13     0.14901062121234     0.10115121755873    -0.56639488523468     0.00000000000000     0.18611205979145

                11                  12                  13

    1     0.22280005321220     0.05563044882297    -0.01043714870887
    2     0.13089431887386    -0.01043714870887    -0.21880931589100
    3     0.02312737057011     0.05869702380701    -0.27576710622124
    4    -0.02028341518543    -0.00186316536581    -0.34477162347449
    5     0.00000000000000     0.00000000000000    -0.00000000000000
    6    -0.00000000000000     0.10851864262480     0.14901062121234
    7    -0.57917506592137     0.08138124121611     0.10115121755873
    8     0.01141090606230    -0.20477537035000    -0.56639488523468
    9     0.00000000000000     0.00000000000000     0.00000000000000
   10     0.00000000000000     0.26599803378161     0.18611205979145
   11    -3.85289398114206     0.22280005321220     0.13089431887385
   12     0.22280005321220    -3.52344691937846    -0.48082144691885
   13     0.13089431887386    -0.48082144691885    -2.57455804391440



  ## C (Symmetry 0) ##
  Irrep: 1 Size: 13 x 13

                 1                   2                   3                   4                   5

    1    -0.00408145260448    -0.04759514801535    -1.26361426693336    -0.47733826291195    -0.04218316882886
    2     0.11748353492805     0.38255237291329     0.22557113252227     1.36504459352656    -0.02326628861927
    3    -0.03708729880117    -0.02960406538109    -0.00810317531083     0.00214944900938     0.11421063526904
    4    -0.03469579443335    -0.01445067542773    -0.06866030556432     0.05695002155339    -1.37618091438175
    5    -0.03354536093213     0.04553373629142    -0.05496388087578     0.35931473770411     0.00000000000010
    6     0.60279329155660     0.40471383068964    -0.03107039677923    -0.26975459976883    -0.00000000000000
    7    -0.32330062452550    -0.17366047225128     0.02202848650456     0.01939990293792     0.01504504840797
    8     0.06668010948535     0.22168687439835     0.16927019545464    -0.35432481149590     0.56432361388354
    9     0.07931814135023    -0.10427861194883     0.03061070637496     0.12602357053693    -0.00000000000003
   10    -0.86117435695251    -0.46434190457654     0.21080576465944    -0.19761059392188    -0.00000000000000
   11    -0.56423351784383    -0.02373721686791    -0.20353478671651    -0.02541349940322    -0.05886701312362
   12    -0.52756100929877     1.07198339666057    -0.01599987523448     0.03193729606101    -0.04218316882886
   13     0.10859233128461    -1.44380742569430    -0.01612584346205    -0.21086627722483    -0.02326628861928

                 6                   7                   8                   9                  10

    1    -0.00104811158117     0.16661093399754    -0.14014741668948    -0.12247282043715    -0.10220658082030
    2     0.00455397020091    -0.65810422195584     0.66300961409184    -0.49623376249995    -0.25508768908722
    3    -1.01231769076852    -0.00154165324376     0.00169341641898    -0.01568175204921    -0.12668440256968
    4     0.10846392724619    -0.03376030661056     0.05339336909597    -1.05108075859000     0.03805027070021
    5    -0.00000000000004     0.97457195300527     0.32698465518950    -0.00000000000000    -0.00000000000000
    6     0.01543642098171     0.06469904899521     0.63921239637758     0.00000000000001    -0.25351059365110
    7     0.14823289027631     0.00588362409962    -0.15348560921285     0.06589592114919    -0.81044765453176
    8     0.03002791845082     0.19018152421362    -0.26285342884190     2.17890222762687    -0.07949086192268
    9     0.00000000000001    -0.14787371285084    -0.62323985700489     0.00000000000006    -0.00000000000000
   10    -0.06100827946260     0.12861577180158    -0.36601183071086    -0.00000000000000     1.04780416610013
   11    -0.04731712690923    -0.05038104804021     0.58358251733015    -0.35047174725290     0.25378964123342
   12    -0.02420134770785     0.00615190819431    -0.34759460317169    -0.12247282043715     0.09134256859537
   13     0.00426231742957     0.08694946075753     0.10642495304164    -0.49623376249995     0.40949603632839

                11                  12                  13

    1    -0.04559866961728    -0.19896847805877    -0.04436535715640
    2    -0.19299384387559    -0.20041198902098    -0.02825726940645
    3    -0.00284761702616     0.02612813928048     0.03909056013223
    4    -0.04496238497705    -0.10126851486491     0.09169708477799
    5     0.37524861768266    -0.03354536093213     0.04553373629142
    6    -0.47128369176253     0.26054992514900     0.23134738799561
    7     0.13482527555537     0.69606305664099     0.18694679891088
    8     0.15779904043341     0.32690859532289    -0.41471879903807
    9    -0.93520158905902     0.07931814135022    -0.10427861194884
   10     0.17864008917412     0.48997478523325     0.40811018854733
   11    -0.52996102529443    -0.94467814557349     0.12194938761950
   12    -0.01095072551395    -0.20310999481080     0.57308893967179
   13    -0.05632687590807    -0.22405536724077     0.84219905071382




 Iter: 0  T:     1000.000
Nuc Replusion =       7.334554608310
 1st iteration =    -113.218059741060
 Iter: 0  T:     1000.000
 iter:1  energy:    -87.615413730811  total:    -80.280859122501  error:    -11.704751384053
 Iter: 1  T:      980.000
 iter:2  energy:    -75.562440786548  total:    -68.227886178238  error:     12.052972944262
 Iter: 2  T:      960.000
 iter:3  energy:    -88.181628091565  total:    -80.847073483255  error:    -12.619187305016
 Iter: 3  T:      940.000
 iter:4  energy:    -78.531199724145  total:    -71.196645115835  error:      9.650428367419
 Iter: 4  T:      920.000
 iter:5  energy:    -85.602993202672  total:    -78.268438594361  error:     -7.071793478526
 Iter: 5  T:      900.000
 iter:6  energy:    -80.561374208842  total:    -73.226819600532  error:      5.041618993830
 Iter: 6  T:      880.000
 iter:7  energy:    -84.132294336352  total:    -76.797739728041  error:     -3.570920127510
 Iter: 7  T:      860.000
 iter:8  energy:    -81.629982066084  total:    -74.295427457774  error:      2.502312270267
 Iter: 8  T:      840.000
 iter:9  energy:    -83.383578527976  total:    -76.049023919666  error:     -1.753596461892
 Iter: 9  T:      820.000
 iter:10  energy:    -82.160963637823  total:    -74.826409029513  error:      1.222614890153
 Iter: 10  T:      800.000
 iter:11  energy:    -83.014540575660  total:    -75.679985967350  error:     -0.853576937837
 Iter: 11  T:      780.000
 iter:12  energy:    -82.420170285804  total:    -75.085615677494  error:      0.594370289856
 Iter: 12  T:      760.000
 iter:13  energy:    -82.834561740442  total:    -75.500007132132  error:     -0.414391454638
 Iter: 13  T:      740.000
 iter:14  energy:    -82.546052004106  total:    -75.211497395796  error:      0.288509736335
 Iter: 14  T:      720.000
 iter:15  energy:    -82.747088118839  total:    -75.412533510529  error:     -0.201036114733
 Iter: 15  T:      700.000
 iter:16  energy:    -82.607109329704  total:    -75.272554721394  error:      0.139978789135
 Iter: 16  T:      680.000
 iter:17  energy:    -82.704623631732  total:    -75.370069023422  error:     -0.097514302028
 Iter: 17  T:      660.000
 iter:18  energy:    -82.636719047969  total:    -75.302164439658  error:      0.067904583764
 Iter: 18  T:      640.000
 iter:19  energy:    -82.684018126845  total:    -75.349463518535  error:     -0.047299078877
 Iter: 19  T:      620.000
 iter:20  energy:    -82.651078961779  total:    -75.316524353468  error:      0.032939165067
 Iter: 20  T:      600.000
 iter:21  energy:    -82.674021386115  total:    -75.339466777805  error:     -0.022942424337
 Iter: 21  T:      580.000
 iter:22  energy:    -82.658043604735  total:    -75.323488996425  error:      0.015977781380
 Iter: 22  T:      560.000
 iter:23  energy:    -82.669171913930  total:    -75.334617305620  error:     -0.011128309195
 Iter: 23  T:      540.000
 iter:24  energy:    -82.661421659677  total:    -75.326867051367  error:      0.007750254253
 Iter: 24  T:      520.000
 iter:25  energy:    -82.666819516128  total:    -75.332264907818  error:     -0.005397856451
 Iter: 25  T:      500.000
 iter:26  energy:    -82.663060161841  total:    -75.328505553531  error:      0.003759354288
 Iter: 26  T:      480.000
 iter:27  energy:    -82.665678434190  total:    -75.331123825880  error:     -0.002618272350
 Iter: 27  T:      460.000
 iter:28  energy:    -82.663854918685  total:    -75.329300310375  error:      0.001823515505
 Iter: 28  T:      440.000
 iter:29  energy:    -82.665124934262  total:    -75.330570325952  error:     -0.001270015576
 Iter: 29  T:      420.000
 iter:30  energy:    -82.664240419474  total:    -75.329685811164  error:      0.000884514788
 Iter: 30  T:      400.000
 iter:31  energy:    -82.664856452037  total:    -75.330301843727  error:     -0.000616032563
 Iter: 31  T:      380.000
 iter:32  energy:    -82.664427409408  total:    -75.329872801098  error:      0.000429042628
 Iter: 32  T:      360.000
 iter:33  energy:    -82.664726221726  total:    -75.330171613416  error:     -0.000298812318
 Iter: 33  T:      340.000
 iter:34  energy:    -82.664518110436  total:    -75.329963502126  error:      0.000208111290
 Iter: 34  T:      320.000
 iter:35  energy:    -82.664663052163  total:    -75.330108443853  error:     -0.000144941727
 Iter: 35  T:      300.000
 iter:36  energy:    -82.664562105779  total:    -75.330007497469  error:      0.000100946383
 Iter: 36  T:      280.000
 iter:37  energy:    -82.664632411137  total:    -75.330077802827  error:     -0.000070305357
 Iter: 37  T:      260.000
 iter:38  energy:    -82.664583446127  total:    -75.330028837817  error:      0.000048965010
 Iter: 38  T:      240.000
 iter:39  energy:    -82.664617548408  total:    -75.330062940098  error:     -0.000034102282
 Iter: 39  T:      220.000
 iter:40  energy:    -82.664593797463  total:    -75.330039189153  error:      0.000023750946
 Iter: 40  T:      200.000
 iter:41  energy:    -82.664610339099  total:    -75.330055730789  error:     -0.000016541636
 Iter: 41  T:      180.000
 iter:42  energy:    -82.664598818476  total:    -75.330044210166  error:      0.000011520623
 Iter: 42  T:      160.000
 iter:43  energy:    -82.664606842154  total:    -75.330052233844  error:     -0.000008023678
 Iter: 43  T:      140.000
 iter:44  energy:    -82.664601253966  total:    -75.330046645656  error:      0.000005588188
 Iter: 44  T:      120.000
 iter:45  energy:    -82.664605145927  total:    -75.330050537617  error:     -0.000003891961
 Iter: 45  T:      100.000
 iter:46  energy:    -82.664602435324  total:    -75.330047827014  error:      0.000002710604
 Iter: 46  T:       80.000
 iter:47  energy:    -82.664604323157  total:    -75.330049714847  error:     -0.000001887833
 Iter: 47  T:       60.000
 iter:48  energy:    -82.664603008352  total:    -75.330048400042  error:      0.000001314804
 Iter: 48  T:       40.000
 iter:49  energy:    -82.664603924064  total:    -75.330049315754  error:     -0.000000915711
 Iter: 49  T:       20.000
 iter:50  energy:    -82.664603286306  total:    -75.330048677996  error:      0.000000637758
 Iter: 50  T:        0.000
 iter:3001  energy:    -82.664603730480  total:    -75.330049122170  error:     -0.000000444174
 Iter: 3001  T:   -59020.000
 iter:3001  energy:    -19.744229468863  total:    -12.409674860553  error:     62.920374261617
 Iter: 3001  T:   -59020.000
 iter:3001  energy:    -10.108396245275  total:     -2.773841636965  error:      9.635833223588
 Iter: 3001  T:   -59020.000
 iter:3001  energy:    -15.693313015917  total:     -8.358758407607  error:     -5.584916770642
 Iter: 3001  T:   -59020.000
 iter:3001  energy:    -15.704840214301  total:     -8.370285605991  error:     -0.011527198384
 Iter: 3001  T:   -59020.000
 iter:3001  energy:    -15.152934419755  total:     -7.818379811445  error:      0.551905794546
 Iter: 3001  T:   -59020.000
 iter:3001  energy:    -15.243478010166  total:     -7.908923401856  error:     -0.090543590411
 Iter: 3001  T:   -59020.000
 iter:3001  energy:    -15.216826251253  total:     -7.882271642943  error:      0.026651758913
 Iter: 3001  T:   -59020.000
 iter:3001  energy:    -15.225242032496  total:     -7.890687424186  error:     -0.008415781243
 Iter: 3001  T:   -59020.000
 iter:3001  energy:    -15.222405577269  total:     -7.887850968959  error:      0.002836455228
 Iter: 3001  T:   -59020.000
 iter:3001  energy:    -15.223395145804  total:     -7.888840537494  error:     -0.000989568536
 Iter: 3001  T:   -59020.000
 iter:3001  energy:    -15.223044289013  total:     -7.888489680703  error:      0.000350856791
 Iter: 3001  T:   -59020.000
 iter:3001  energy:    -15.223169729397  total:     -7.888615121087  error:     -0.000125440383
 Iter: 3001  T:   -59020.000
 iter:3001  energy:    -15.223124700086  total:     -7.888570091776  error:      0.000045029311
 Iter: 3001  T:   -59020.000
 iter:3001  energy:    -15.223140899249  total:     -7.888586290938  error:     -0.000016199163
 Iter: 3001  T:   -59020.000
 iter:3001  energy:    -15.223135064647  total:     -7.888580456337  error:      0.000005834601
 Iter: 3001  T:   -59020.000
 iter:3001  energy:    -15.223137167770  total:     -7.888582559460  error:     -0.000002103123
 Iter: 3001  T:   -59020.000
 iter:3001  energy:    -15.223136409264  total:     -7.888581800954  error:      0.000000758506
 Iter: 3001  T:   -59020.000
 iter:3001  energy:    -15.223136682949  total:     -7.888582074639  error:     -0.000000273685
 Iter: 3001  T:   -59020.000
 iter:3001  energy:    -15.223136584158  total:     -7.888581975848  error:      0.000000098791
*** PSI4 exiting successfully. Buy a developer a beer!
