    -----------------------------------------------------------------------
          Psi4: An Open-Source Ab Initio Electronic Structure Package
                              Psi4 0.1.81 Driver

                          Git: Rev {master} 2996acf 

    J. M. Turney, A. C. Simmonett, R. M. Parrish, E. G. Hohenstein,
    F. A. Evangelista, J. T. Fermann, B. J. Mintz, L. A. Burns, J. J. Wilke,
    M. L. Abrams, N. J. Russ, M. L. Leininger, C. L. Janssen, E. T. Seidl,
    W. D. Allen, H. F. Schaefer, R. A. King, E. F. Valeev, C. D. Sherrill,
    and T. D. Crawford, WIREs Comput. Mol. Sci. 2, 556-565 (2012)
    (doi: 10.1002/wcms.93)

                         Additional Contributions by
    A. E. DePrince, M. Saitow, U. Bozkaya, A. Yu. Sokolov
    -----------------------------------------------------------------------


    Psi4 started on: 04-19-2015  08:13:04 PM EDT

    Process ID:  78233
    PSI4DATADIR: /Users/kevinhannon/Programs/psi4cmake/psi4/lib
    Memory level set to 256.000 MB

  ==> Input File <==

--------------------------------------------------------------------------

# PYTHONPATH must include directory above plugin directory.
#     Define either externally or here, then import plugin.
sys.path.insert(0, './..')
import scf

molecule {
0 1
H
F 1 1.2
symmetry c1
units angstrom
}


set {
  basis cc-pvdz
  reference rhf
  scf_type  pk
}

set scf {
  print 1
  DO_FTHF true
  MAX_ITER 130
  MAX_TEMP 20000
  TEMP_INCREMENT 0
  bisect  true
  bisect_iter  40
}
energy('rhf')
energy('scf')

scf.exampleFN()

--------------------------------------------------------------------------
/Users/kevinhannon/Programs/Quantum_Programs/Quantum-Programs/GS/scf/scf.so loaded.

*** tstart() called on Kevins-MacBook-Pro.local
*** at Sun Apr 19 20:13:04 2015


         ---------------------------------------------------------
                                   SCF
            by Justin Turney, Rob Parrish, and Andy Simmonett
                              RHF Reference
                        1 Threads,    256 MiB Core
         ---------------------------------------------------------

  ==> Geometry <==

    Molecular point group: c1
    Full point group: C_inf_v

    Geometry (in Angstrom), charge = 0, multiplicity = 1:

       Center              X                  Y                   Z       
    ------------   -----------------  -----------------  -----------------
           H          0.000000000000     0.000000000000    -1.139549323191
           F          0.000000000000     0.000000000000     0.060450676809

  Running in c1 symmetry.

  Rotational constants: A = ************  B =     12.23199  C =     12.23199 [cm^-1]
  Rotational constants: A = ************  B = 366705.71758  C = 366705.71758 [MHz]
  Nuclear repulsion =    3.968829064425001

  Charge       = 0
  Multiplicity = 1
  Electrons    = 10
  Nalpha       = 5
  Nbeta        = 5

  ==> Algorithm <==

  SCF Algorithm Type is PK.
  DIIS enabled.
  MOM disabled.
  Fractional occupation disabled.
  Guess Type is CORE.
  Energy threshold   = 1.00e-06
  Density threshold  = 1.00e-06
  Integral threshold = 0.00e+00

  ==> Primary Basis <==

  Basis Set: CC-PVDZ
    Number of shells: 9
    Number of basis function: 19
    Number of Cartesian functions: 20
    Spherical Harmonics?: true
    Max angular momentum: 2

  ==> Pre-Iterations <==

   -------------------------------------------------------
    Irrep   Nso     Nmo     Nalpha   Nbeta   Ndocc  Nsocc
   -------------------------------------------------------
     A         19      19       0       0       0       0
   -------------------------------------------------------
    Total      19      19       5       5       5       0
   -------------------------------------------------------

  Starting with a DF guess...

 OEINTS: Overlap, kinetic, potential, dipole, and quadrupole integrals
         stored in file 35.

  ==> Integral Setup <==

  ==> DFJK: Density-Fitted J/K Matrices <==

    J tasked:                  Yes
    K tasked:                  Yes
    wK tasked:                  No
    OpenMP threads:              1
    Integrals threads:           1
    Memory (MB):               183
    Algorithm:                Core
    Integral Cache:           NONE
    Schwarz Cutoff:          1E-12
    Fitting Condition:       1E-12

   => Auxiliary Basis Set <=

  Basis Set: 
    Number of shells: 33
    Number of basis function: 93
    Number of Cartesian functions: 106
    Spherical Harmonics?: true
    Max angular momentum: 3

  Minimum eigenvalue in the overlap matrix is 9.0421244767E-02.
  Using Symmetric Orthogonalization.
  SCF Guess: Core (One-Electron) Hamiltonian.

  ==> Iterations <==

                           Total Energy        Delta E     RMS |[F,P]|

   @DF-RHF iter   1:   -93.62813087673860   -9.36281e+01   1.54585e-01 
   @DF-RHF iter   2:   -94.51606802291680   -8.87937e-01   1.57128e-01 DIIS
   @DF-RHF iter   3:   -99.85763053821141   -5.34156e+00   2.64786e-02 DIIS
   @DF-RHF iter   4:   -99.95025433553904   -9.26238e-02   5.48521e-03 DIIS
   @DF-RHF iter   5:   -99.95863378342344   -8.37945e-03   1.63025e-03 DIIS
   @DF-RHF iter   6:   -99.95938279800509   -7.49015e-04   9.67124e-04 DIIS
   @DF-RHF iter   7:   -99.95951936621263   -1.36568e-04   6.92399e-05 DIIS
   @DF-RHF iter   8:   -99.95952017136958   -8.05157e-07   3.26644e-05 DIIS
   @DF-RHF iter   9:   -99.95952028616529   -1.14796e-07   1.73815e-06 DIIS
   @DF-RHF iter  10:   -99.95952028681013   -6.44846e-10   1.55253e-07 DIIS

  DF guess converged.

  ==> Integral Setup <==

 MINTS: Wrapper to libmints.
   by Justin Turney

   Calculation information:
      Number of atoms:                   2
      Number of AO shells:               9
      Number of SO shells:               9
      Number of primitives:             27
      Number of atomic orbitals:        20
      Number of basis functions:        19

      Number of irreps:                  1
      Integral cutoff                 0.00e+00
      Number of functions per irrep: [  19 ]

 OEINTS: Overlap, kinetic, potential, dipole, and quadrupole integrals
         stored in file 35.

      Computing two-electron integrals...done
      Computed 4165 non-zero two-electron integrals.
        Stored in file 33.

	Batch   1 pq = [       0,     190] index = [             0,18145]
  ==> DiskJK: Disk-Based J/K Matrices <==

    J tasked:                  Yes
    K tasked:                  Yes
    wK tasked:                  No
    Memory (MB):               183
    Schwarz Cutoff:          1E-12

   @RHF iter  11:   -99.95952602873589   -5.74193e-06   7.38447e-06 DIIS
   @RHF iter  12:   -99.95952603819035   -9.45445e-09   1.25890e-06 DIIS
   @RHF iter  13:   -99.95952603844658   -2.56236e-10   4.94733e-07 DIIS

  ==> Post-Iterations <==

    Orbital Energies (a.u.)
    -----------------------

    Doubly Occupied:                                                      

       1A    -26.280436     2A     -1.515960     3A     -0.645474  
       4A     -0.607088     5A     -0.607088  

    Virtual:                                                              

       6A      0.106803     7A      0.630393     8A      1.331548  
       9A      1.331548    10A      1.532115    11A      1.632689  
      12A      1.632689    13A      1.850523    14A      2.250223  
      15A      4.027056    16A      4.027056    17A      4.092279  
      18A      4.092279    19A      4.626625  

    Final Occupation by Irrep:
              A 
    DOCC [     5 ]

  Energy converged.

  @RHF Final Energy:   -99.95952603844658

   => Energetics <=

    Nuclear Repulsion Energy =              3.9688290644250008
    One-Electron Energy =                -148.5446437520112113
    Two-Electron Energy =                  44.6162886491396193
    DFT Exchange-Correlation Energy =       0.0000000000000000
    Empirical Dispersion Energy =           0.0000000000000000
    PCM Polarization Energy =               0.0000000000000000
    EFP Energy =                            0.0000000000000000
    Total Energy =                        -99.9595260384465973

    Alert: EFP and PCM quantities not currently incorporated into SCF psivars.

Properties will be evaluated at   0.000000,   0.000000,   0.000000 Bohr
  ==> Properties <==


Properties computed using the SCF density matrix

  Nuclear Dipole Moment: (a.u.)
     X:     0.0000      Y:     0.0000      Z:    -1.1253

  Electronic Dipole Moment: (a.u.)
     X:    -0.0000      Y:     0.0000      Z:     0.1461

  Dipole Moment: (a.u.)
     X:    -0.0000      Y:     0.0000      Z:    -0.9792     Total:     0.9792

  Dipole Moment: (Debye)
     X:    -0.0000      Y:     0.0000      Z:    -2.4889     Total:     2.4889


  Saving occupied orbitals to File 180.

*** tstop() called on Kevins-MacBook-Pro.local at Sun Apr 19 20:13:05 2015
Module time:
	user time   =       0.27 seconds =       0.00 minutes
	system time =       0.02 seconds =       0.00 minutes
	total time  =          1 seconds =       0.02 minutes
Total time:
	user time   =       0.27 seconds =       0.00 minutes
	system time =       0.02 seconds =       0.00 minutes
	total time  =          1 seconds =       0.02 minutes

*** tstart() called on Kevins-MacBook-Pro.local
*** at Sun Apr 19 20:13:05 2015


         ---------------------------------------------------------
                                   SCF
            by Justin Turney, Rob Parrish, and Andy Simmonett
                              RHF Reference
                        1 Threads,    256 MiB Core
         ---------------------------------------------------------

  ==> Geometry <==

    Molecular point group: c1
    Full point group: C_inf_v

    Geometry (in Angstrom), charge = 0, multiplicity = 1:

       Center              X                  Y                   Z       
    ------------   -----------------  -----------------  -----------------
           H          0.000000000000     0.000000000000    -1.139549323191
           F          0.000000000000     0.000000000000     0.060450676809

  Running in c1 symmetry.

  Rotational constants: A = ************  B =     12.23199  C =     12.23199 [cm^-1]
  Rotational constants: A = ************  B = 366705.71758  C = 366705.71758 [MHz]
  Nuclear repulsion =    3.968829064425001

  Charge       = 0
  Multiplicity = 1
  Electrons    = 10
  Nalpha       = 5
  Nbeta        = 5

  ==> Algorithm <==

  SCF Algorithm Type is PK.
  DIIS enabled.
  MOM disabled.
  Fractional occupation disabled.
  Guess Type is CORE.
  Energy threshold   = 1.00e-08
  Density threshold  = 1.00e-08
  Integral threshold = 0.00e+00

  ==> Primary Basis <==

  Basis Set: CC-PVDZ
    Number of shells: 9
    Number of basis function: 19
    Number of Cartesian functions: 20
    Spherical Harmonics?: true
    Max angular momentum: 2

  ==> Pre-Iterations <==

   -------------------------------------------------------
    Irrep   Nso     Nmo     Nalpha   Nbeta   Ndocc  Nsocc
   -------------------------------------------------------
     A         19      19       0       0       0       0
   -------------------------------------------------------
    Total      19      19       5       5       5       0
   -------------------------------------------------------

  Starting with a DF guess...

 OEINTS: Overlap, kinetic, potential, dipole, and quadrupole integrals
         stored in file 35.

  ==> Integral Setup <==

  ==> DFJK: Density-Fitted J/K Matrices <==

    J tasked:                  Yes
    K tasked:                  Yes
    wK tasked:                  No
    OpenMP threads:              1
    Integrals threads:           1
    Memory (MB):               183
    Algorithm:                Core
    Integral Cache:           NONE
    Schwarz Cutoff:          1E-12
    Fitting Condition:       1E-12

   => Auxiliary Basis Set <=

  Basis Set: 
    Number of shells: 33
    Number of basis function: 93
    Number of Cartesian functions: 106
    Spherical Harmonics?: true
    Max angular momentum: 3

  Minimum eigenvalue in the overlap matrix is 9.0421244767E-02.
  Using Symmetric Orthogonalization.
  SCF Guess: Core (One-Electron) Hamiltonian.

  ==> Iterations <==

                           Total Energy        Delta E     RMS |[F,P]|

   @DF-RHF iter   1:   -93.62813087673860   -9.36281e+01   1.54585e-01 
   @DF-RHF iter   2:   -94.51606802291680   -8.87937e-01   1.57128e-01 DIIS
   @DF-RHF iter   3:   -99.85763053821141   -5.34156e+00   2.64786e-02 DIIS
   @DF-RHF iter   4:   -99.95025433553904   -9.26238e-02   5.48521e-03 DIIS
   @DF-RHF iter   5:   -99.95863378342344   -8.37945e-03   1.63025e-03 DIIS
   @DF-RHF iter   6:   -99.95938279800509   -7.49015e-04   9.67124e-04 DIIS
   @DF-RHF iter   7:   -99.95951936621263   -1.36568e-04   6.92399e-05 DIIS
   @DF-RHF iter   8:   -99.95952017136958   -8.05157e-07   3.26644e-05 DIIS
   @DF-RHF iter   9:   -99.95952028616529   -1.14796e-07   1.73815e-06 DIIS
   @DF-RHF iter  10:   -99.95952028681013   -6.44846e-10   1.55253e-07 DIIS
   @DF-RHF iter  11:   -99.95952028681461   -4.47642e-12   2.50099e-08 DIIS
   @DF-RHF iter  12:   -99.95952028681472   -1.13687e-13   1.72588e-09 DIIS

  DF guess converged.

  ==> Integral Setup <==

 MINTS: Wrapper to libmints.
   by Justin Turney

   Calculation information:
      Number of atoms:                   2
      Number of AO shells:               9
      Number of SO shells:               9
      Number of primitives:             27
      Number of atomic orbitals:        20
      Number of basis functions:        19

      Number of irreps:                  1
      Integral cutoff                 0.00e+00
      Number of functions per irrep: [  19 ]

 OEINTS: Overlap, kinetic, potential, dipole, and quadrupole integrals
         stored in file 35.

      Computing two-electron integrals...done
      Computed 4165 non-zero two-electron integrals.
        Stored in file 33.

	Batch   1 pq = [       0,     190] index = [             0,18145]
  ==> DiskJK: Disk-Based J/K Matrices <==

    J tasked:                  Yes
    K tasked:                  Yes
    wK tasked:                  No
    Memory (MB):               183
    Schwarz Cutoff:          1E-12

   @RHF iter  13:   -99.95952602874212   -5.74193e-06   7.38284e-06 DIIS
   @RHF iter  14:   -99.95952603819183   -9.44971e-09   1.25300e-06 DIIS
   @RHF iter  15:   -99.95952603844776   -2.55937e-10   4.84239e-07 DIIS
   @RHF iter  16:   -99.95952603847320   -2.54374e-11   1.08565e-07 DIIS
   @RHF iter  17:   -99.95952603847583   -2.62901e-12   4.49702e-08 DIIS
   @RHF iter  18:   -99.95952603847640   -5.68434e-13   7.03977e-09 DIIS

  ==> Post-Iterations <==

    Orbital Energies (a.u.)
    -----------------------

    Doubly Occupied:                                                      

       1A    -26.280438     2A     -1.515960     3A     -0.645475  
       4A     -0.607088     5A     -0.607088  

    Virtual:                                                              

       6A      0.106802     7A      0.630392     8A      1.331547  
       9A      1.331547    10A      1.532115    11A      1.632688  
      12A      1.632688    13A      1.850521    14A      2.250222  
      15A      4.027056    16A      4.027056    17A      4.092279  
      18A      4.092279    19A      4.626625  

    Final Occupation by Irrep:
              A 
    DOCC [     5 ]

  Energy converged.

  @RHF Final Energy:   -99.95952603847640

   => Energetics <=

    Nuclear Repulsion Energy =              3.9688290644250008
    One-Electron Energy =                -148.5446120077409375
    Two-Electron Energy =                  44.6162569048395312
    DFT Exchange-Correlation Energy =       0.0000000000000000
    Empirical Dispersion Energy =           0.0000000000000000
    PCM Polarization Energy =               0.0000000000000000
    EFP Energy =                            0.0000000000000000
    Total Energy =                        -99.9595260384764117

    Alert: EFP and PCM quantities not currently incorporated into SCF psivars.

Properties will be evaluated at   0.000000,   0.000000,   0.000000 Bohr
  ==> Properties <==


Properties computed using the SCF density matrix

  Nuclear Dipole Moment: (a.u.)
     X:     0.0000      Y:     0.0000      Z:    -1.1253

  Electronic Dipole Moment: (a.u.)
     X:    -0.0000      Y:    -0.0000      Z:     0.1461

  Dipole Moment: (a.u.)
     X:    -0.0000      Y:    -0.0000      Z:    -0.9792     Total:     0.9792

  Dipole Moment: (Debye)
     X:    -0.0000      Y:    -0.0000      Z:    -2.4890     Total:     2.4890


  Saving occupied orbitals to File 180.

*** tstop() called on Kevins-MacBook-Pro.local at Sun Apr 19 20:13:05 2015
Module time:
	user time   =       0.24 seconds =       0.00 minutes
	system time =       0.01 seconds =       0.00 minutes
	total time  =          0 seconds =       0.00 minutes
Total time:
	user time   =       0.52 seconds =       0.01 minutes
	system time =       0.03 seconds =       0.00 minutes
	total time  =          1 seconds =       0.02 minutes
Reading options from the SCF block
Calling plugin scf.so.
    Molecular point group: c1
    Full point group: C_inf_v

    Geometry (in Angstrom), charge = 0, multiplicity = 1:

       Center              X                  Y                   Z       
    ------------   -----------------  -----------------  -----------------
           H          0.000000000000     0.000000000000    -1.139549323191
           F          0.000000000000     0.000000000000     0.060450676809


    Nuclear repulsion energy:       3.96882906

  ## Overlap (Symmetry 0) ##
  Irrep: 1 Size: 19 x 19

                 1                   2                   3                   4                   5

    1     1.00000000000000     0.68486025149275     0.00000000000000     0.00000000000000     0.00000000000000
    2     0.68486025149275     1.00000000000000     0.00000000000000     0.00000000000000     0.00000000000000
    3     0.00000000000000     0.00000000000000     1.00000000000000     0.00000000000000     0.00000000000000
    4     0.00000000000000     0.00000000000000     0.00000000000000     1.00000000000000     0.00000000000000
    5     0.00000000000000     0.00000000000000     0.00000000000000     0.00000000000000     1.00000000000000
    6     0.02023884328280     0.04658108695857     0.03401903713420     0.00000000000000     0.00000000000000
    7     0.12135721506233     0.22454265833570     0.20693499797791     0.00000000000000     0.00000000000000
    8     0.30799689240352     0.48790912841231     0.34073355287661     0.00000000000000     0.00000000000000
    9    -0.13305103306968    -0.08185206846670    -0.24924129199409     0.00000000000000     0.00000000000000
   10     0.00000000000000     0.00000000000000     0.00000000000000     0.06251008487152     0.00000000000000
   11     0.00000000000000     0.00000000000000     0.00000000000000     0.00000000000000     0.06251008487152
   12    -0.51644598874712    -0.35899474252186    -0.35801706533577     0.00000000000000     0.00000000000000
   13     0.00000000000000     0.00000000000000     0.00000000000000     0.25279956195128     0.00000000000000
   14     0.00000000000000     0.00000000000000     0.00000000000000     0.00000000000000     0.25279956195128
   15     0.10226185795368     0.01883884358033     0.20087470029074     0.00000000000000     0.00000000000000
   16     0.00000000000000     0.00000000000000     0.00000000000000    -0.10939383142101     0.00000000000000
   17     0.00000000000000     0.00000000000000     0.00000000000000     0.00000000000000    -0.10939383142101
   18     0.00000000000000     0.00000000000000     0.00000000000000     0.00000000000000     0.00000000000000
   19     0.00000000000000     0.00000000000000     0.00000000000000     0.00000000000000     0.00000000000000

                 6                   7                   8                   9                  10

    1     0.02023884328280     0.12135721506233     0.30799689240352    -0.13305103306968     0.00000000000000
    2     0.04658108695857     0.22454265833570     0.48790912841231    -0.08185206846670     0.00000000000000
    3     0.03401903713420     0.20693499797791     0.34073355287661    -0.24924129199409     0.00000000000000
    4     0.00000000000000     0.00000000000000     0.00000000000000     0.00000000000000     0.06251008487152
    5     0.00000000000000     0.00000000000000     0.00000000000000     0.00000000000000     0.00000000000000
    6     1.00000000000000    -0.21219404698842     0.19546664208046    -0.00000000000000     0.00000000000000
    7    -0.21219404698842     1.00000000000000     0.70604659253613    -0.00000000000000     0.00000000000000
    8     0.19546664208046     0.70604659253613     1.00000000000000    -0.00000000000000     0.00000000000000
    9    -0.00000000000000    -0.00000000000000    -0.00000000000000     1.00000000000000     0.00000000000000
   10     0.00000000000000     0.00000000000000     0.00000000000000     0.00000000000000     1.00000000000000
   11     0.00000000000000     0.00000000000000     0.00000000000000     0.00000000000000     0.00000000000000
   12    -0.00000000000000     0.00000000000000    -0.00000000000000     0.49034660279836     0.00000000000000
   13     0.00000000000000     0.00000000000000     0.00000000000000     0.00000000000000     0.49034660279836
   14     0.00000000000000     0.00000000000000     0.00000000000000     0.00000000000000     0.00000000000000
   15     0.00000000000000     0.00000000000000     0.00000000000000     0.00000000000000     0.00000000000000
   16     0.00000000000000     0.00000000000000     0.00000000000000     0.00000000000000     0.00000000000000
   17     0.00000000000000     0.00000000000000     0.00000000000000     0.00000000000000     0.00000000000000
   18     0.00000000000000     0.00000000000000     0.00000000000000     0.00000000000000     0.00000000000000
   19     0.00000000000000     0.00000000000000     0.00000000000000     0.00000000000000     0.00000000000000

                11                  12                  13                  14                  15

    1     0.00000000000000    -0.51644598874712     0.00000000000000     0.00000000000000     0.10226185795368
    2     0.00000000000000    -0.35899474252186     0.00000000000000     0.00000000000000     0.01883884358033
    3     0.00000000000000    -0.35801706533577     0.00000000000000     0.00000000000000     0.20087470029074
    4     0.00000000000000     0.00000000000000     0.25279956195128     0.00000000000000     0.00000000000000
    5     0.06251008487152     0.00000000000000     0.00000000000000     0.25279956195128     0.00000000000000
    6     0.00000000000000    -0.00000000000000     0.00000000000000     0.00000000000000     0.00000000000000
    7     0.00000000000000     0.00000000000000     0.00000000000000     0.00000000000000     0.00000000000000
    8     0.00000000000000    -0.00000000000000     0.00000000000000     0.00000000000000     0.00000000000000
    9     0.00000000000000     0.49034660279836     0.00000000000000     0.00000000000000     0.00000000000000
   10     0.00000000000000     0.00000000000000     0.49034660279836     0.00000000000000     0.00000000000000
   11     1.00000000000000     0.00000000000000     0.00000000000000     0.49034660279836     0.00000000000000
   12     0.00000000000000     1.00000000000000     0.00000000000000     0.00000000000000     0.00000000000000
   13     0.00000000000000     0.00000000000000     1.00000000000000     0.00000000000000     0.00000000000000
   14     0.49034660279836     0.00000000000000     0.00000000000000     1.00000000000000     0.00000000000000
   15     0.00000000000000     0.00000000000000     0.00000000000000     0.00000000000000     1.00000000000000
   16     0.00000000000000     0.00000000000000     0.00000000000000     0.00000000000000     0.00000000000000
   17     0.00000000000000     0.00000000000000     0.00000000000000     0.00000000000000     0.00000000000000
   18     0.00000000000000     0.00000000000000     0.00000000000000     0.00000000000000     0.00000000000000
   19     0.00000000000000     0.00000000000000     0.00000000000000     0.00000000000000     0.00000000000000

                16                  17                  18                  19

    1     0.00000000000000     0.00000000000000     0.00000000000000     0.00000000000000
    2     0.00000000000000     0.00000000000000     0.00000000000000     0.00000000000000
    3     0.00000000000000     0.00000000000000     0.00000000000000     0.00000000000000
    4    -0.10939383142101     0.00000000000000     0.00000000000000     0.00000000000000
    5     0.00000000000000    -0.10939383142101     0.00000000000000     0.00000000000000
    6     0.00000000000000     0.00000000000000     0.00000000000000     0.00000000000000
    7     0.00000000000000     0.00000000000000     0.00000000000000     0.00000000000000
    8     0.00000000000000     0.00000000000000     0.00000000000000     0.00000000000000
    9     0.00000000000000     0.00000000000000     0.00000000000000     0.00000000000000
   10     0.00000000000000     0.00000000000000     0.00000000000000     0.00000000000000
   11     0.00000000000000     0.00000000000000     0.00000000000000     0.00000000000000
   12     0.00000000000000     0.00000000000000     0.00000000000000     0.00000000000000
   13     0.00000000000000     0.00000000000000     0.00000000000000     0.00000000000000
   14     0.00000000000000     0.00000000000000     0.00000000000000     0.00000000000000
   15     0.00000000000000     0.00000000000000     0.00000000000000     0.00000000000000
   16     1.00000000000000     0.00000000000000     0.00000000000000     0.00000000000000
   17     0.00000000000000     1.00000000000000     0.00000000000000     0.00000000000000
   18     0.00000000000000     0.00000000000000     1.00000000000000     0.00000000000000
   19     0.00000000000000     0.00000000000000     0.00000000000000     1.00000000000000



  ## Kinetic (Symmetry 0) ##
  Irrep: 1 Size: 19 x 19

                 1                   2                   3                   4                   5

    1     0.96945722711242     0.20123413106538    -0.00000000000000     0.00000000000000     0.00000000000000
    2     0.20123413106538     0.18300000000000     0.00000000000000     0.00000000000000     0.00000000000000
    3    -0.00000000000000     0.00000000000000     1.81750000000000     0.00000000000000     0.00000000000000
    4     0.00000000000000     0.00000000000000     0.00000000000000     1.81750000000000     0.00000000000000
    5     0.00000000000000     0.00000000000000     0.00000000000000     0.00000000000000     1.81750000000000
    6    -0.01186807894540     0.00986378228468    -0.04098470101546     0.00000000000000     0.00000000000000
    7    -0.02756348004351     0.04624984010079     0.05018265830019     0.00000000000000     0.00000000000000
    8     0.04655269336780     0.09267974318569     0.20666849346763     0.00000000000000     0.00000000000000
    9    -0.03755874487499    -0.03539667175069    -0.29342299560729     0.00000000000000     0.00000000000000
   10     0.00000000000000     0.00000000000000     0.00000000000000    -0.00085822303851     0.00000000000000
   11     0.00000000000000     0.00000000000000     0.00000000000000     0.00000000000000    -0.00085822303851
   12    -0.30106894313498    -0.13194753138721    -0.50432499874058     0.00000000000000     0.00000000000000
   13     0.00000000000000     0.00000000000000     0.00000000000000     0.15345391489835     0.00000000000000
   14     0.00000000000000     0.00000000000000     0.00000000000000     0.00000000000000     0.15345391489835
   15     0.07697016207670     0.01247614785198     0.51372238706287     0.00000000000000     0.00000000000000
   16     0.00000000000000     0.00000000000000     0.00000000000000    -0.10026030622952     0.00000000000000
   17     0.00000000000000     0.00000000000000     0.00000000000000     0.00000000000000    -0.10026030622952
   18     0.00000000000000     0.00000000000000     0.00000000000000     0.00000000000000     0.00000000000000
   19     0.00000000000000     0.00000000000000     0.00000000000000     0.00000000000000     0.00000000000000

                 6                   7                   8                   9                  10

    1    -0.01186807894540    -0.02756348004351     0.04655269336780    -0.03755874487499     0.00000000000000
    2     0.00986378228468     0.04624984010079     0.09267974318569    -0.03539667175069     0.00000000000000
    3    -0.04098470101546     0.05018265830019     0.20666849346763    -0.29342299560729     0.00000000000000
    4     0.00000000000000     0.00000000000000     0.00000000000000     0.00000000000000    -0.00085822303851
    5     0.00000000000000     0.00000000000000     0.00000000000000     0.00000000000000     0.00000000000000
    6    37.22471444625417   -20.52073395865566     0.21749540512976    -0.00000000000000     0.00000000000000
    7   -20.52073395865565    13.45883070162496     0.60653679451622     0.00000000000000     0.00000000000000
    8     0.21749540512976     0.60653679451622     0.58455000000000    -0.00000000000000     0.00000000000000
    9    -0.00000000000000     0.00000000000000    -0.00000000000000     5.66107751446918     0.00000000000000
   10     0.00000000000000     0.00000000000000     0.00000000000000     0.00000000000000     5.66107751446918
   11     0.00000000000000     0.00000000000000     0.00000000000000     0.00000000000000     0.00000000000000
   12    -0.00000000000000     0.00000000000000    -0.00000000000000     0.69140601487073     0.00000000000000
   13     0.00000000000000     0.00000000000000     0.00000000000000     0.00000000000000     0.69140601487073
   14     0.00000000000000     0.00000000000000     0.00000000000000     0.00000000000000     0.00000000000000
   15     0.00000000000000     0.00000000000000     0.00000000000000     0.00000000000000     0.00000000000000
   16     0.00000000000000     0.00000000000000     0.00000000000000     0.00000000000000     0.00000000000000
   17     0.00000000000000     0.00000000000000     0.00000000000000     0.00000000000000     0.00000000000000
   18     0.00000000000000     0.00000000000000     0.00000000000000     0.00000000000000     0.00000000000000
   19     0.00000000000000     0.00000000000000     0.00000000000000     0.00000000000000     0.00000000000000

                11                  12                  13                  14                  15

    1     0.00000000000000    -0.30106894313498     0.00000000000000     0.00000000000000     0.07697016207670
    2     0.00000000000000    -0.13194753138721     0.00000000000000     0.00000000000000     0.01247614785198
    3     0.00000000000000    -0.50432499874058     0.00000000000000     0.00000000000000     0.51372238706287
    4     0.00000000000000     0.00000000000000     0.15345391489835     0.00000000000000     0.00000000000000
    5    -0.00085822303851     0.00000000000000     0.00000000000000     0.15345391489835     0.00000000000000
    6     0.00000000000000    -0.00000000000000     0.00000000000000     0.00000000000000     0.00000000000000
    7     0.00000000000000     0.00000000000000     0.00000000000000     0.00000000000000     0.00000000000000
    8     0.00000000000000    -0.00000000000000     0.00000000000000     0.00000000000000     0.00000000000000
    9     0.00000000000000     0.69140601487073     0.00000000000000     0.00000000000000     0.00000000000000
   10     0.00000000000000     0.00000000000000     0.69140601487073     0.00000000000000     0.00000000000000
   11     5.66107751446918     0.00000000000000     0.00000000000000     0.69140601487073     0.00000000000000
   12     0.00000000000000     0.86775000000000     0.00000000000000     0.00000000000000     0.00000000000000
   13     0.00000000000000     0.00000000000000     0.86775000000000     0.00000000000000     0.00000000000000
   14     0.69140601487073     0.00000000000000     0.00000000000000     0.86775000000000     0.00000000000000
   15     0.00000000000000     0.00000000000000     0.00000000000000     0.00000000000000     5.74000000000000
   16     0.00000000000000     0.00000000000000     0.00000000000000     0.00000000000000     0.00000000000000
   17     0.00000000000000     0.00000000000000     0.00000000000000     0.00000000000000     0.00000000000000
   18     0.00000000000000     0.00000000000000     0.00000000000000     0.00000000000000     0.00000000000000
   19     0.00000000000000     0.00000000000000     0.00000000000000     0.00000000000000     0.00000000000000

                16                  17                  18                  19

    1     0.00000000000000     0.00000000000000     0.00000000000000     0.00000000000000
    2     0.00000000000000     0.00000000000000     0.00000000000000     0.00000000000000
    3     0.00000000000000     0.00000000000000     0.00000000000000     0.00000000000000
    4    -0.10026030622952     0.00000000000000     0.00000000000000     0.00000000000000
    5     0.00000000000000    -0.10026030622952     0.00000000000000     0.00000000000000
    6     0.00000000000000     0.00000000000000     0.00000000000000     0.00000000000000
    7     0.00000000000000     0.00000000000000     0.00000000000000     0.00000000000000
    8     0.00000000000000     0.00000000000000     0.00000000000000     0.00000000000000
    9     0.00000000000000     0.00000000000000     0.00000000000000     0.00000000000000
   10     0.00000000000000     0.00000000000000     0.00000000000000     0.00000000000000
   11     0.00000000000000     0.00000000000000     0.00000000000000     0.00000000000000
   12     0.00000000000000     0.00000000000000     0.00000000000000     0.00000000000000
   13     0.00000000000000     0.00000000000000     0.00000000000000     0.00000000000000
   14     0.00000000000000     0.00000000000000     0.00000000000000     0.00000000000000
   15     0.00000000000000     0.00000000000000     0.00000000000000     0.00000000000000
   16     5.74000000000000     0.00000000000000     0.00000000000000     0.00000000000000
   17     0.00000000000000     5.74000000000000     0.00000000000000     0.00000000000000
   18     0.00000000000000     0.00000000000000     5.73999999999999     0.00000000000000
   19     0.00000000000000     0.00000000000000     0.00000000000000     5.74000000000000



  ## Potential (Symmetry 0) ##
  Irrep: 1 Size: 19 x 19

                 1                   2                   3                   4                   5

    1    -5.34013721924264    -3.32981674929565    -1.09393041606387     0.00000000000000     0.00000000000000
    2    -3.32981674929565    -4.07707552293792    -0.99870384853192     0.00000000000000     0.00000000000000
    3    -1.09393041606387    -0.99870384853192    -5.39836486335788     0.00000000000000     0.00000000000000
    4     0.00000000000000     0.00000000000000     0.00000000000000    -4.61056121186513     0.00000000000000
    5     0.00000000000000     0.00000000000000     0.00000000000000     0.00000000000000    -4.61056121186513
    6    -0.73636349226195    -1.75142000647627    -1.21536150449334     0.00000000000000     0.00000000000000
    7    -1.08350587456906    -2.00005533971454    -1.90805847427773     0.00000000000000     0.00000000000000
    8    -2.23443407619537    -3.63508712219506    -2.90975924686422     0.00000000000000     0.00000000000000
    9     1.25790263109789     0.79670480230347     2.50245772672664     0.00000000000000     0.00000000000000
   10     0.00000000000000     0.00000000000000     0.00000000000000    -0.55901627432550     0.00000000000000
   11     0.00000000000000     0.00000000000000     0.00000000000000     0.00000000000000    -0.55901627432550
   12     3.01102310821501     1.93055027577822     2.70333160848134     0.00000000000000     0.00000000000000
   13     0.00000000000000     0.00000000000000     0.00000000000000    -1.37907764379248     0.00000000000000
   14     0.00000000000000     0.00000000000000     0.00000000000000     0.00000000000000    -1.37907764379248
   15    -0.83678824322862    -0.17827843362846    -1.74349603411588     0.00000000000000     0.00000000000000
   16     0.00000000000000     0.00000000000000     0.00000000000000     0.86003645576806     0.00000000000000
   17     0.00000000000000     0.00000000000000     0.00000000000000     0.00000000000000     0.86003645576806
   18     0.00000000000000     0.00000000000000     0.00000000000000     0.00000000000000     0.00000000000000
   19     0.00000000000000     0.00000000000000     0.00000000000000     0.00000000000000     0.00000000000000

                 6                   7                   8                   9                  10

    1    -0.73636349226195    -1.08350587456906    -2.23443407619537     1.25790263109789     0.00000000000000
    2    -1.75142000647627    -2.00005533971454    -3.63508712219506     0.79670480230347     0.00000000000000
    3    -1.21536150449334    -1.90805847427773    -2.90975924686422     2.50245772672664     0.00000000000000
    4     0.00000000000000     0.00000000000000     0.00000000000000     0.00000000000000    -0.55901627432550
    5     0.00000000000000     0.00000000000000     0.00000000000000     0.00000000000000     0.00000000000000
    6   -78.08045282285468    30.15709645156442    -7.61315770838523     0.01427199691811     0.00000000000000
    7    30.15709645156444   -25.51137787926763    -6.34946424082240     0.07780880609041     0.00000000000000
    8    -7.61315770838523    -6.34946424082240    -9.40450340057756     0.08336204537919     0.00000000000000
    9     0.01427199691811     0.07780880609041     0.08336204537919   -15.56581411526659     0.00000000000000
   10     0.00000000000000     0.00000000000000     0.00000000000000     0.00000000000000   -15.53218022205450
   11     0.00000000000000     0.00000000000000     0.00000000000000     0.00000000000000     0.00000000000000
   12     0.00261258861103     0.05380133973267     0.14648239614479    -5.00200602177998     0.00000000000000
   13     0.00000000000000     0.00000000000000     0.00000000000000     0.00000000000000    -4.96805055807262
   14     0.00000000000000     0.00000000000000     0.00000000000000     0.00000000000000     0.00000000000000
   15    -0.00130182926197    -0.02955471396985    -0.04130538590122     0.09118179787164     0.00000000000000
   16     0.00000000000000     0.00000000000000     0.00000000000000     0.00000000000000     0.06321072632660
   17     0.00000000000000     0.00000000000000     0.00000000000000     0.00000000000000     0.00000000000000
   18     0.00000000000000     0.00000000000000     0.00000000000000     0.00000000000000     0.00000000000000
   19     0.00000000000000     0.00000000000000     0.00000000000000     0.00000000000000     0.00000000000000

                11                  12                  13                  14                  15

    1     0.00000000000000     3.01102310821501     0.00000000000000     0.00000000000000    -0.83678824322862
    2     0.00000000000000     1.93055027577822     0.00000000000000     0.00000000000000    -0.17827843362846
    3     0.00000000000000     2.70333160848133     0.00000000000000     0.00000000000000    -1.74349603411588
    4     0.00000000000000     0.00000000000000    -1.37907764379248     0.00000000000000     0.00000000000000
    5    -0.55901627432550     0.00000000000000     0.00000000000000    -1.37907764379248     0.00000000000000
    6     0.00000000000000     0.00261258861103     0.00000000000000     0.00000000000000    -0.00130182926197
    7     0.00000000000000     0.05380133973267     0.00000000000000     0.00000000000000    -0.02955471396985
    8     0.00000000000000     0.14648239614479     0.00000000000000     0.00000000000000    -0.04130538590122
    9     0.00000000000000    -5.00200602177998     0.00000000000000     0.00000000000000     0.09118179787164
   10     0.00000000000000     0.00000000000000    -4.96805055807262     0.00000000000000     0.00000000000000
   11   -15.53218022205450     0.00000000000000     0.00000000000000    -4.96805055807262     0.00000000000000
   12     0.00000000000000    -6.16726571952469     0.00000000000000     0.00000000000000     0.08860926711830
   13     0.00000000000000     0.00000000000000    -6.02096744968691     0.00000000000000     0.00000000000000
   14    -4.96805055807262     0.00000000000000     0.00000000000000    -6.02096744968691     0.00000000000000
   15     0.00000000000000     0.08860926711830     0.00000000000000     0.00000000000000   -10.28329144087877
   16     0.00000000000000     0.00000000000000     0.05373425999389     0.00000000000000     0.00000000000000
   17     0.06321072632660     0.00000000000000     0.00000000000000     0.05373425999389     0.00000000000000
   18     0.00000000000000     0.00000000000000     0.00000000000000     0.00000000000000     0.00000000000000
   19     0.00000000000000     0.00000000000000     0.00000000000000     0.00000000000000     0.00000000000000

                16                  17                  18                  19

    1     0.00000000000000     0.00000000000000     0.00000000000000     0.00000000000000
    2     0.00000000000000     0.00000000000000     0.00000000000000     0.00000000000000
    3     0.00000000000000     0.00000000000000     0.00000000000000     0.00000000000000
    4     0.86003645576806     0.00000000000000     0.00000000000000     0.00000000000000
    5     0.00000000000000     0.86003645576806     0.00000000000000     0.00000000000000
    6     0.00000000000000     0.00000000000000     0.00000000000000     0.00000000000000
    7     0.00000000000000     0.00000000000000     0.00000000000000     0.00000000000000
    8     0.00000000000000     0.00000000000000     0.00000000000000     0.00000000000000
    9     0.00000000000000     0.00000000000000     0.00000000000000     0.00000000000000
   10     0.06321072632660     0.00000000000000     0.00000000000000     0.00000000000000
   11     0.00000000000000     0.06321072632660     0.00000000000000     0.00000000000000
   12     0.00000000000000     0.00000000000000     0.00000000000000     0.00000000000000
   13     0.05373425999389     0.00000000000000     0.00000000000000     0.00000000000000
   14     0.00000000000000     0.05373425999389     0.00000000000000     0.00000000000000
   15     0.00000000000000     0.00000000000000     0.00000000000000     0.00000000000000
   16   -10.25859483633965     0.00000000000000     0.00000000000000     0.00000000000000
   17     0.00000000000000   -10.25859483633965     0.00000000000000     0.00000000000000
   18     0.00000000000000     0.00000000000000   -10.22519035374583     0.00000000000000
   19     0.00000000000000     0.00000000000000     0.00000000000000   -10.22519035374583



  ## One Electron Ints (Symmetry 0) ##
  Irrep: 1 Size: 19 x 19

                 1                   2                   3                   4                   5

    1    -4.37067999213022    -3.12858261823027    -1.09393041606387     0.00000000000000     0.00000000000000
    2    -3.12858261823027    -3.89407552293792    -0.99870384853192     0.00000000000000     0.00000000000000
    3    -1.09393041606387    -0.99870384853192    -3.58086486335788     0.00000000000000     0.00000000000000
    4     0.00000000000000     0.00000000000000     0.00000000000000    -2.79306121186513     0.00000000000000
    5     0.00000000000000     0.00000000000000     0.00000000000000     0.00000000000000    -2.79306121186513
    6    -0.74823157120735    -1.74155622419159    -1.25634620550879     0.00000000000000     0.00000000000000
    7    -1.11106935461258    -1.95380549961376    -1.85787581597754     0.00000000000000     0.00000000000000
    8    -2.18788138282757    -3.54240737900936    -2.70309075339659     0.00000000000000     0.00000000000000
    9     1.22034388622290     0.76130813055277     2.20903473111936     0.00000000000000     0.00000000000000
   10     0.00000000000000     0.00000000000000     0.00000000000000    -0.55987449736401     0.00000000000000
   11     0.00000000000000     0.00000000000000     0.00000000000000     0.00000000000000    -0.55987449736401
   12     2.70995416508003     1.79860274439100     2.19900660974075     0.00000000000000     0.00000000000000
   13     0.00000000000000     0.00000000000000     0.00000000000000    -1.22562372889413     0.00000000000000
   14     0.00000000000000     0.00000000000000     0.00000000000000     0.00000000000000    -1.22562372889413
   15    -0.75981808115191    -0.16580228577648    -1.22977364705301     0.00000000000000     0.00000000000000
   16     0.00000000000000     0.00000000000000     0.00000000000000     0.75977614953854     0.00000000000000
   17     0.00000000000000     0.00000000000000     0.00000000000000     0.00000000000000     0.75977614953854
   18     0.00000000000000     0.00000000000000     0.00000000000000     0.00000000000000     0.00000000000000
   19     0.00000000000000     0.00000000000000     0.00000000000000     0.00000000000000     0.00000000000000

                 6                   7                   8                   9                  10

    1    -0.74823157120735    -1.11106935461258    -2.18788138282757     1.22034388622290     0.00000000000000
    2    -1.74155622419159    -1.95380549961376    -3.54240737900936     0.76130813055277     0.00000000000000
    3    -1.25634620550879    -1.85787581597754    -2.70309075339659     2.20903473111936     0.00000000000000
    4     0.00000000000000     0.00000000000000     0.00000000000000     0.00000000000000    -0.55987449736401
    5     0.00000000000000     0.00000000000000     0.00000000000000     0.00000000000000     0.00000000000000
    6   -40.85573837660051     9.63636249290876    -7.39566230325547     0.01427199691811     0.00000000000000
    7     9.63636249290879   -12.05254717764267    -5.74292744630618     0.07780880609041     0.00000000000000
    8    -7.39566230325547    -5.74292744630618    -8.81995340057756     0.08336204537919     0.00000000000000
    9     0.01427199691811     0.07780880609041     0.08336204537919    -9.90473660079741     0.00000000000000
   10     0.00000000000000     0.00000000000000     0.00000000000000     0.00000000000000    -9.87110270758532
   11     0.00000000000000     0.00000000000000     0.00000000000000     0.00000000000000     0.00000000000000
   12     0.00261258861103     0.05380133973267     0.14648239614479    -4.31060000690925     0.00000000000000
   13     0.00000000000000     0.00000000000000     0.00000000000000     0.00000000000000    -4.27664454320189
   14     0.00000000000000     0.00000000000000     0.00000000000000     0.00000000000000     0.00000000000000
   15    -0.00130182926197    -0.02955471396985    -0.04130538590122     0.09118179787164     0.00000000000000
   16     0.00000000000000     0.00000000000000     0.00000000000000     0.00000000000000     0.06321072632661
   17     0.00000000000000     0.00000000000000     0.00000000000000     0.00000000000000     0.00000000000000
   18     0.00000000000000     0.00000000000000     0.00000000000000     0.00000000000000     0.00000000000000
   19     0.00000000000000     0.00000000000000     0.00000000000000     0.00000000000000     0.00000000000000

                11                  12                  13                  14                  15

    1     0.00000000000000     2.70995416508003     0.00000000000000     0.00000000000000    -0.75981808115191
    2     0.00000000000000     1.79860274439100     0.00000000000000     0.00000000000000    -0.16580228577648
    3     0.00000000000000     2.19900660974075     0.00000000000000     0.00000000000000    -1.22977364705301
    4     0.00000000000000     0.00000000000000    -1.22562372889413     0.00000000000000     0.00000000000000
    5    -0.55987449736401     0.00000000000000     0.00000000000000    -1.22562372889413     0.00000000000000
    6     0.00000000000000     0.00261258861103     0.00000000000000     0.00000000000000    -0.00130182926197
    7     0.00000000000000     0.05380133973267     0.00000000000000     0.00000000000000    -0.02955471396985
    8     0.00000000000000     0.14648239614479     0.00000000000000     0.00000000000000    -0.04130538590122
    9     0.00000000000000    -4.31060000690925     0.00000000000000     0.00000000000000     0.09118179787164
   10     0.00000000000000     0.00000000000000    -4.27664454320189     0.00000000000000     0.00000000000000
   11    -9.87110270758532     0.00000000000000     0.00000000000000    -4.27664454320189     0.00000000000000
   12     0.00000000000000    -5.29951571952469     0.00000000000000     0.00000000000000     0.08860926711830
   13     0.00000000000000     0.00000000000000    -5.15321744968691     0.00000000000000     0.00000000000000
   14    -4.27664454320189     0.00000000000000     0.00000000000000    -5.15321744968691     0.00000000000000
   15     0.00000000000000     0.08860926711830     0.00000000000000     0.00000000000000    -4.54329144087877
   16     0.00000000000000     0.00000000000000     0.05373425999389     0.00000000000000     0.00000000000000
   17     0.06321072632661     0.00000000000000     0.00000000000000     0.05373425999389     0.00000000000000
   18     0.00000000000000     0.00000000000000     0.00000000000000     0.00000000000000     0.00000000000000
   19     0.00000000000000     0.00000000000000     0.00000000000000     0.00000000000000     0.00000000000000

                16                  17                  18                  19

    1     0.00000000000000     0.00000000000000     0.00000000000000     0.00000000000000
    2     0.00000000000000     0.00000000000000     0.00000000000000     0.00000000000000
    3     0.00000000000000     0.00000000000000     0.00000000000000     0.00000000000000
    4     0.75977614953854     0.00000000000000     0.00000000000000     0.00000000000000
    5     0.00000000000000     0.75977614953854     0.00000000000000     0.00000000000000
    6     0.00000000000000     0.00000000000000     0.00000000000000     0.00000000000000
    7     0.00000000000000     0.00000000000000     0.00000000000000     0.00000000000000
    8     0.00000000000000     0.00000000000000     0.00000000000000     0.00000000000000
    9     0.00000000000000     0.00000000000000     0.00000000000000     0.00000000000000
   10     0.06321072632661     0.00000000000000     0.00000000000000     0.00000000000000
   11     0.00000000000000     0.06321072632661     0.00000000000000     0.00000000000000
   12     0.00000000000000     0.00000000000000     0.00000000000000     0.00000000000000
   13     0.05373425999389     0.00000000000000     0.00000000000000     0.00000000000000
   14     0.00000000000000     0.05373425999389     0.00000000000000     0.00000000000000
   15     0.00000000000000     0.00000000000000     0.00000000000000     0.00000000000000
   16    -4.51859483633965     0.00000000000000     0.00000000000000     0.00000000000000
   17     0.00000000000000    -4.51859483633965     0.00000000000000     0.00000000000000
   18     0.00000000000000     0.00000000000000    -4.48519035374584     0.00000000000000
   19     0.00000000000000     0.00000000000000     0.00000000000000    -4.48519035374584




	There are 0 unique integrals

  ## Fock (Symmetry 0) ##
  Irrep: 1 Size: 19 x 19

                 1                   2                   3                   4                   5

    1    -3.86155696548590    -0.43064585282661    -0.45963639146491    -0.00000000000000    -0.00000000000000
    2    -0.43064585282661    -2.67149888187595    -0.04076001860114    -0.00000000000000     0.00000000000000
    3    -0.45963639146491    -0.04076001860114    -2.46539830278687     0.00000000000000    -0.00000000000000
    4    -0.00000000000000    -0.00000000000000     0.00000000000000    -2.64282755374568     0.00000000000000
    5    -0.00000000000000     0.00000000000000    -0.00000000000000     0.00000000000000    -2.64282755374568
    6     0.02555831705984    -0.31534478024091    -0.26306406103048     0.00000000000000     0.00000000000000
    7    -0.05876526198292    -0.15529995092407    -0.22080966674301    -0.00000000000000     0.00000000000000
    8    -0.19614999514161    -0.85709498223982    -0.83709843007123     0.00000000000000    -0.00000000000000
    9     0.12987591492843     0.08175587377655     0.46438491231063    -0.00000000000000    -0.00000000000000
   10     0.00000000000000    -0.00000000000000    -0.00000000000000    -0.06237558492269     0.00000000000000
   11     0.00000000000000    -0.00000000000000    -0.00000000000000     0.00000000000000    -0.06237558492268
   12     0.33035515085376     0.24664259492321     0.63926010151952     0.00000000000000    -0.00000000000000
   13    -0.00000000000000    -0.00000000000000     0.00000000000000    -0.27201126024483     0.00000000000000
   14    -0.00000000000000    -0.00000000000000    -0.00000000000000     0.00000000000000    -0.27201126024483
   15    -0.42055352848716    -0.01925867393725    -0.65216148288933     0.00000000000000    -0.00000000000000
   16     0.00000000000000    -0.00000000000000    -0.00000000000000     0.37260109360309     0.00000000000000
   17     0.00000000000000     0.00000000000000     0.00000000000000    -0.00000000000000     0.37260109360309
   18     0.00000000000000     0.00000000000000     0.00000000000000     0.00000000000000     0.00000000000000
   19     0.00000000000000     0.00000000000000     0.00000000000000     0.00000000000000     0.00000000000000

                 6                   7                   8                   9                  10

    1     0.02555831705985    -0.05876526198292    -0.19614999514161     0.12987591492843     0.00000000000000
    2    -0.31534478024091    -0.15529995092407    -0.85709498223982     0.08175587377655    -0.00000000000000
    3    -0.26306406103048    -0.22080966674302    -0.83709843007122     0.46438491231063    -0.00000000000000
    4     0.00000000000000    -0.00000000000000     0.00000000000000    -0.00000000000000    -0.06237558492269
    5     0.00000000000000     0.00000000000000    -0.00000000000000    -0.00000000000000     0.00000000000000
    6   -39.23215136268873     5.63972605326941    -4.87262587600717    -0.00238933518136    -0.00000000000000
    7     5.63972605326947   -10.33577856880989    -1.29037003265027     0.05988623098698    -0.00000000000000
    8    -4.87262587600720    -1.29037003265025    -5.60300129182959    -0.03792916873288     0.00000000000001
    9    -0.00238933518136     0.05988623098698    -0.03792916873288    -9.85056338427646     0.00000000000000
   10    -0.00000000000000    -0.00000000000000     0.00000000000001     0.00000000000000    -9.83726440057718
   11     0.00000000000000     0.00000000000000     0.00000000000000    -0.00000000000000    -0.00000000000000
   12     0.11925422768286     0.01368877528947    -0.23263900936331    -0.71832992693900     0.00000000000000
   13    -0.00000000000001     0.00000000000000    -0.00000000000000     0.00000000000000    -0.77951740379405
   14     0.00000000000000    -0.00000000000000    -0.00000000000000     0.00000000000000    -0.00000000000000
   15    -0.06038177777516    -0.07110984972478     0.26617009537396     0.04999401895131     0.00000000000000
   16     0.00000000000000     0.00000000000000    -0.00000000000000    -0.00000000000000     0.05920711928454
   17     0.00000000000000    -0.00000000000000     0.00000000000000    -0.00000000000000     0.00000000000000
   18     0.00000000000000     0.00000000000000     0.00000000000000     0.00000000000000     0.00000000000000
   19     0.00000000000000     0.00000000000000     0.00000000000000     0.00000000000000     0.00000000000000

                11                  12                  13                  14                  15

    1     0.00000000000000     0.33035515085376    -0.00000000000000    -0.00000000000000    -0.42055352848715
    2    -0.00000000000000     0.24664259492321    -0.00000000000000    -0.00000000000000    -0.01925867393725
    3    -0.00000000000000     0.63926010151952     0.00000000000000    -0.00000000000000    -0.65216148288933
    4     0.00000000000000     0.00000000000000    -0.27201126024483     0.00000000000000     0.00000000000000
    5    -0.06237558492268    -0.00000000000000     0.00000000000000    -0.27201126024483    -0.00000000000000
    6     0.00000000000000     0.11925422768286    -0.00000000000001     0.00000000000000    -0.06038177777516
    7     0.00000000000000     0.01368877528947     0.00000000000000    -0.00000000000000    -0.07110984972478
    8     0.00000000000000    -0.23263900936331    -0.00000000000000    -0.00000000000000     0.26617009537396
    9    -0.00000000000000    -0.71832992693900     0.00000000000000     0.00000000000000     0.04999401895131
   10    -0.00000000000000     0.00000000000000    -0.77951740379405    -0.00000000000000     0.00000000000000
   11    -9.83726440057717     0.00000000000000     0.00000000000000    -0.77951740379404     0.00000000000000
   12     0.00000000000000    -4.17466544564950    -0.00000000000000    -0.00000000000000    -0.25483302026186
   13     0.00000000000000    -0.00000000000000    -4.38143605937257    -0.00000000000000     0.00000000000000
   14    -0.77951740379404    -0.00000000000000    -0.00000000000000    -4.38143605937256    -0.00000000000000
   15     0.00000000000000    -0.25483302026186     0.00000000000000    -0.00000000000000    -4.35853429370841
   16     0.00000000000000     0.00000000000000    -0.01107511981383    -0.00000000000000     0.00000000000000
   17     0.05920711928453    -0.00000000000000     0.00000000000000    -0.01107511981383     0.00000000000000
   18     0.00000000000000     0.00000000000000     0.00000000000000     0.00000000000000     0.00000000000000
   19     0.00000000000000     0.00000000000000     0.00000000000000     0.00000000000000     0.00000000000000

                16                  17                  18                  19

    1     0.00000000000000     0.00000000000000     0.00000000000000     0.00000000000000
    2    -0.00000000000000     0.00000000000000     0.00000000000000     0.00000000000000
    3    -0.00000000000000     0.00000000000000     0.00000000000000     0.00000000000000
    4     0.37260109360309    -0.00000000000000     0.00000000000000     0.00000000000000
    5     0.00000000000000     0.37260109360309     0.00000000000000     0.00000000000000
    6     0.00000000000000     0.00000000000000     0.00000000000000     0.00000000000000
    7     0.00000000000000    -0.00000000000000     0.00000000000000     0.00000000000000
    8    -0.00000000000000     0.00000000000000     0.00000000000000     0.00000000000000
    9    -0.00000000000000    -0.00000000000000     0.00000000000000     0.00000000000000
   10     0.05920711928454     0.00000000000000     0.00000000000000     0.00000000000000
   11     0.00000000000000     0.05920711928453     0.00000000000000     0.00000000000000
   12     0.00000000000000    -0.00000000000000     0.00000000000000     0.00000000000000
   13    -0.01107511981383     0.00000000000000     0.00000000000000     0.00000000000000
   14    -0.00000000000000    -0.01107511981383     0.00000000000000     0.00000000000000
   15     0.00000000000000     0.00000000000000     0.00000000000000     0.00000000000000
   16    -4.48313338670830     0.00000000000000     0.00000000000000     0.00000000000000
   17     0.00000000000000    -4.48313338670830     0.00000000000000     0.00000000000000
   18     0.00000000000000     0.00000000000000    -4.48519035374584     0.00000000000000
   19     0.00000000000000     0.00000000000000     0.00000000000000    -4.48519035374584



  ## C (Symmetry 0) ##
  Irrep: 1 Size: 19 x 19

                 1                   2                   3                   4                   5

    1     0.10802576778460    -0.06153400509119    -0.05799178212229    -0.05149512069913     0.00798235731560
    2     0.06142658313195     0.04588400826952     0.10978372086872    -0.10033371449714     0.00379114691082
    3     0.18375695008437    -0.03306843573473     0.02097836021425    -0.09471578636263    -0.01185065313689
    4     0.00000000000000    -0.00000000000000     0.00000000000000     0.03242057632928    -0.05533833228187
    5     0.00000000000001    -0.00000000000000     0.00000000000001     0.05533833228187     0.03242057632928
    6    -0.62064749223924    -0.33019377691376    -0.42855192107596    -0.08014514131027     0.00135008799424
    7    -0.19721778417145    -0.44664000109668    -0.20245479385922    -0.17532679047532     0.00300583590038
    8     0.08007913528640     0.27587208637432     0.14136520365784     0.40790917950442    -0.00371048734420
    9    -0.03362266761178     0.02066580054439    -0.00514180333244     0.00533744379507    -0.22985083769655
   10    -0.00000000000000     0.00000000000000    -0.00000000000000     0.03609028642603    -0.00136522594631
   11     0.00000000000000    -0.00000000000000     0.00000000000000     0.00136522594632     0.03609028642603
   12     0.25146005262843    -0.10035852241498     0.02445807074335    -0.08568390706105     0.06375049057183
   13     0.00000000000000    -0.00000000000001     0.00000000000000    -0.13962449181873     0.00843354934075
   14    -0.00000000000000     0.00000000000000    -0.00000000000000    -0.00843354934075    -0.13962449181873
   15    -0.81971872324601    -0.06900016849915     0.26450585352690     0.02266693926155     0.00052099963510
   16    -0.00000000000000     0.00000000000000    -0.00000000000000     0.01066693013565    -0.97581576016280
   17     0.00000000000000    -0.00000000000001     0.00000000000001     0.97581576016280     0.01066693013565
   18     0.17682279125933    -0.86570777560255     0.41245717100525    -0.00000000000001    -0.00000000000000
   19     0.11594458445228    -0.35443250362158    -0.78096704692348    -0.00000000000000     0.00000000000000

                 6                   7                   8                   9                  10

    1     1.44142699159792    -0.53630129023086    -0.28118915147584    -0.03194894483136     0.00774218527066
    2    -0.21111312077595     1.37686512887601     0.28241873474805    -0.55836902456030     0.01508496719663
    3     0.22760835435000    -0.08310165471738    -0.34593615677185    -1.22467005970434     0.01424032327950
    4    -0.00000000000000    -0.00000000000003    -0.00000000000001    -0.00000000000009     1.00144568919431
    5    -0.00000000000000    -0.00000000000004    -0.00000000000002    -0.00000000000017    -0.01125552221332
    6     0.18872780945913     0.33355679515172    -0.51637881049007    -0.18377194142990     0.01204965682466
    7     0.33065697001951     0.54704403092250    -1.01857683913395    -0.17346126561195     0.02636002161651
    8    -0.46530274413800    -0.64444453634384     0.66946894016422     0.59072946683113    -0.06132830447735
    9    -0.07389562563406    -0.08878979201111     0.13522293442159    -0.08285547685831    -0.00080247367464
   10    -0.00000000000000    -0.00000000000000     0.00000000000001    -0.00000000000000    -0.01961949771216
   11     0.00000000000000    -0.00000000000000    -0.00000000000000    -0.00000000000000     0.00073107501551
   12     0.59897138594280     0.35300854502455    -0.71085467148259    -0.27932950143082     0.01288239884040
   13     0.00000000000001     0.00000000000002    -0.00000000000003     0.00000000000002     0.01410997073033
   14    -0.00000000000000     0.00000000000000     0.00000000000001     0.00000000000002    -0.00210485033950
   15    -0.18138594083277    -0.07294085774792     0.32023715281281     0.19915598156097    -0.00340792760360
   16    -0.00000000000000    -0.00000000000000    -0.00000000000000    -0.00000000000001     0.05543257653825
   17    -0.00000000000000    -0.00000000000000     0.00000000000000    -0.00000000000001     0.00836779964770
   18    -0.01736861534180    -0.02887950609925     0.13582860423444     0.01136548937829     0.00000000000000
   19    -0.04601108326800    -0.05806062744918     0.34392871123986    -0.02298275183898     0.00000000000000

                11                  12                  13                  14                  15

    1    -0.00120013097157    -0.28836948453909    -0.02975168859674     0.00461186624863    -0.11072454873063
    2    -0.00056999112490    -0.20962607819451    -0.05796854903817     0.00219036329624    -0.00486058006269
    3     0.00178172127588    -0.39074573254748    -0.05472274931681    -0.00684680290116    -0.10722881453644
    4     0.01125552221332    -0.00000000000000     0.28283144524109     0.01352226641409     0.00000000000000
    5     1.00144568919431    -0.00000000000002    -0.01352226641409     0.28283144524109     0.00000000000000
    6    -0.00020298294754     0.29855117528419    -0.04630445087677     0.00078002336993    -0.41999254307068
    7    -0.00045192123290     0.31605838980096    -0.10129635588909     0.00173664402505     0.78971917458679
    8     0.00055786412533     0.08553840848543     0.23567255925625    -0.00214376163232    -0.22945848849262
    9     0.03455759974747     0.24249809348365     0.00308374781021    -0.13279802928913     0.06563688088930
   10    -0.00073107501551     0.00000000000002     0.29130397967899     0.00720675600020     0.00000000000001
   11    -0.01961949771217    -0.00000000000000    -0.00720675600020     0.29130397967899    -0.00000000000000
   12    -0.00958475487399    -1.18468466777621    -0.04950451394268     0.03683231959906    -0.33176275266267
   13     0.00210485033950    -0.00000000000006    -1.12827534667060    -0.02828911722052    -0.00000000000002
   14     0.01410997073033     0.00000000000002     0.02828911722052    -1.12827534667060     0.00000000000001
   15    -0.00007833122138    -0.27938832196127     0.01309599257552     0.00030101141025     0.35936390239959
   16    -0.00836779964770    -0.00000000000000     0.01846752245960     0.14870390870208     0.00000000000000
   17     0.05543257653825     0.00000000000000    -0.14870390870208     0.01846752245960    -0.00000000000000
   18    -0.00000000000000     0.06256481004041     0.00000000000000     0.00000000000000    -0.15979422904154
   19     0.00000000000000    -0.26846734785386    -0.00000000000000     0.00000000000000     0.23376695003394

                16                  17                  18                  19

    1     0.24432255778909    -0.03787290776401    -0.00000000000000    -0.00000000000000
    2     0.47604101952971    -0.01798738788510     0.00000000000000     0.00000000000000
    3     0.44938632773245     0.05622633458406     0.00000000000000     0.00000000000000
    4     0.00953999717511    -0.01037352507234     0.02117150157538     0.00000000000000
    5     0.01037352507234     0.00953999717511    -0.00000000000000     0.02117150157538
    6     0.38025478246180    -0.00640559624900     0.00000000000000    -0.00000000000000
    7     0.83185143206398    -0.01426141944139     0.00000000000000    -0.00000000000000
    8    -1.93535645181709     0.01760469237223    -0.00000000000000    -0.00000000000000
    9    -0.02532391229233     1.09054496452382     0.00000000000000     0.00000000000000
   10     0.04370106808313     0.00061300440285     1.11137845423091     0.00000000000000
   11    -0.00061300440285     0.04370106808313     0.00000000000000     1.11137845423091
   12     0.40653388224557    -0.30246910203054     0.00000000000000    -0.00000000000000
   13    -0.16726789045464    -0.00173401306096    -0.29674314729268    -0.00000000000000
   14     0.00173401306096    -0.16726789045462    -0.00000000000000    -0.29674314729268
   15    -0.10754503538283    -0.00247192280991    -0.00000000000000    -0.00000000000000
   16     0.00274049830136    -0.18729655306407     0.00228229448099    -0.00000000000000
   17     0.18729655306408     0.00274049830136    -0.00000000000000     0.00228229448099
   18    -0.00000000000000    -0.00000000000000     0.00000000000000     0.00000000000000
   19     0.00000000000000     0.00000000000000     0.00000000000000     0.00000000000000




 In Bisection function HOMO = -40.890  LUMO = -1.650

 -21.27020 = (-40.89010 + -1.65029)/2.0
 sum -  nocc_ = -4.00000000
 On Iteration in Bisection 0
 a: -4.00000  b:-4.50000

 -11.46025 = (-21.27020 + -1.65029)/2.0
 sum -  nocc_ = -3.99999999
 On Iteration in Bisection 1
 a: -4.00000  b:-4.00000

 -6.55527 = (-11.46025 + -1.65029)/2.0
 sum -  nocc_ = 0.00000000
 ef = -6.55527 sum = 5.00000 

 Iter: 0  T:    20000.000  val:-6.555269  sumni 0.00000
 ne = 5.0000

Nuc Replusion =       3.968829064425
 1st iteration =     -78.979269189233
 In Bisection function HOMO = -28.690  LUMO =  4.436

 -12.12691 = (-28.68954 + 4.43573)/2.0
 sum -  nocc_ = -4.00000000
 On Iteration in Bisection 0
 a: -4.00000  b:-4.50000

 -3.84559 = (-12.12691 + 4.43573)/2.0
 sum -  nocc_ = -4.00000000
 On Iteration in Bisection 1
 a: -4.00000  b:-4.00000

 0.29507 = (-3.84559 + 4.43573)/2.0
 sum -  nocc_ = 0.99183579
 On Iteration in Bisection 2
 a: 0.99184  b:-4.00000

 -1.77526 = (-3.84559 + 0.29507)/2.0
 sum -  nocc_ = -3.99999998
 On Iteration in Bisection 3
 a: -4.00000  b:-4.00000

 -0.74009 = (-1.77526 + 0.29507)/2.0
 sum -  nocc_ = -3.83951172
 On Iteration in Bisection 4
 a: -3.83951  b:-4.00000

 -0.22251 = (-0.74009 + 0.29507)/2.0
 sum -  nocc_ = -2.62313207
 On Iteration in Bisection 5
 a: -2.62313  b:-3.83951

 0.03628 = (-0.22251 + 0.29507)/2.0
 sum -  nocc_ = -0.28563530
 On Iteration in Bisection 6
 a: -0.28564  b:-2.62313

 0.16568 = (0.03628 + 0.29507)/2.0
 sum -  nocc_ = 0.74040928
 On Iteration in Bisection 7
 a: 0.74041  b:-0.28564

 0.10098 = (0.03628 + 0.16568)/2.0
 sum -  nocc_ = 0.36865840
 On Iteration in Bisection 8
 a: 0.36866  b:-0.28564

 0.06863 = (0.03628 + 0.10098)/2.0
 sum -  nocc_ = 0.07480353
 On Iteration in Bisection 9
 a: 0.07480  b:-0.28564

 0.05245 = (0.03628 + 0.06863)/2.0
 sum -  nocc_ = -0.09844063
 On Iteration in Bisection 10
 a: -0.09844  b:-0.28564

 0.06054 = (0.05245 + 0.06863)/2.0
 sum -  nocc_ = -0.00985234
 On Iteration in Bisection 11
 a: -0.00985  b:-0.09844

 0.06459 = (0.06054 + 0.06863)/2.0
 sum -  nocc_ = 0.03299040
 On Iteration in Bisection 12
 a: 0.03299  b:-0.00985

 0.06256 = (0.06054 + 0.06459)/2.0
 sum -  nocc_ = 0.01169504
 On Iteration in Bisection 13
 a: 0.01170  b:-0.00985

 0.06155 = (0.06054 + 0.06256)/2.0
 sum -  nocc_ = 0.00095250
 On Iteration in Bisection 14
 a: 0.00095  b:-0.00985

 0.06105 = (0.06054 + 0.06155)/2.0
 sum -  nocc_ = -0.00444218
 On Iteration in Bisection 15
 a: -0.00444  b:-0.00985

 0.06130 = (0.06105 + 0.06155)/2.0
 sum -  nocc_ = -0.00174290
 On Iteration in Bisection 16
 a: -0.00174  b:-0.00444

 0.06143 = (0.06130 + 0.06155)/2.0
 sum -  nocc_ = -0.00039472
 On Iteration in Bisection 17
 a: -0.00039  b:-0.00174

 0.06149 = (0.06143 + 0.06155)/2.0
 sum -  nocc_ = 0.00027901
 On Iteration in Bisection 18
 a: 0.00028  b:-0.00039

 0.06146 = (0.06143 + 0.06149)/2.0
 sum -  nocc_ = -0.00005782
 On Iteration in Bisection 19
 a: -0.00006  b:-0.00039

 0.06147 = (0.06146 + 0.06149)/2.0
 sum -  nocc_ = 0.00011060
 On Iteration in Bisection 20
 a: 0.00011  b:-0.00006

 0.06147 = (0.06146 + 0.06147)/2.0
 sum -  nocc_ = 0.00002639
 On Iteration in Bisection 21
 a: 0.00003  b:-0.00006

 0.06146 = (0.06146 + 0.06147)/2.0
 sum -  nocc_ = -0.00001571
 On Iteration in Bisection 22
 a: -0.00002  b:-0.00006

 0.06146 = (0.06146 + 0.06147)/2.0
 sum -  nocc_ = 0.00000534
 On Iteration in Bisection 23
 a: 0.00001  b:-0.00002

 0.06146 = (0.06146 + 0.06146)/2.0
 sum -  nocc_ = -0.00000519
 On Iteration in Bisection 24
 a: -0.00001  b:-0.00002

 0.06146 = (0.06146 + 0.06146)/2.0
 sum -  nocc_ = 0.00000008
 On Iteration in Bisection 25
 a: 0.00000  b:-0.00001

 0.06146 = (0.06146 + 0.06146)/2.0
 sum -  nocc_ = -0.00000256
 On Iteration in Bisection 26
 a: -0.00000  b:-0.00001

 0.06146 = (0.06146 + 0.06146)/2.0
 sum -  nocc_ = -0.00000124
 On Iteration in Bisection 27
 a: -0.00000  b:-0.00000

 0.06146 = (0.06146 + 0.06146)/2.0
 sum -  nocc_ = -0.00000058
 On Iteration in Bisection 28
 a: -0.00000  b:-0.00000

 0.06146 = (0.06146 + 0.06146)/2.0
 sum -  nocc_ = -0.00000025
 On Iteration in Bisection 29
 a: -0.00000  b:-0.00000

 0.06146 = (0.06146 + 0.06146)/2.0
 sum -  nocc_ = -0.00000009
 On Iteration in Bisection 30
 a: -0.00000  b:-0.00000

 0.06146 = (0.06146 + 0.06146)/2.0
 sum -  nocc_ = -0.00000001
 ef = 0.06146 sum = 5.00000 

 Iter: 0  T:    20000.000  val:0.061463  sumni 0.00000
 ne = 5.0000

 iter:1  failiter:1  energy:   -102.987279185578  total:    -99.018450121153  error:     -3.027753147102
 In Bisection function HOMO = -26.223  LUMO =  4.495

 -10.86385 = (-26.22275 + 4.49505)/2.0
 sum -  nocc_ = -4.00000000
 On Iteration in Bisection 0
 a: -4.00000  b:-4.50000

 -3.18440 = (-10.86385 + 4.49505)/2.0
 sum -  nocc_ = -4.00000000
 On Iteration in Bisection 1
 a: -4.00000  b:-4.00000

 0.65533 = (-3.18440 + 4.49505)/2.0
 sum -  nocc_ = 1.23400885
 On Iteration in Bisection 2
 a: 1.23401  b:-4.00000

 -1.26454 = (-3.18440 + 0.65533)/2.0
 sum -  nocc_ = -3.00179010
 On Iteration in Bisection 3
 a: -3.00179  b:-4.00000

 -0.30461 = (-1.26454 + 0.65533)/2.0
 sum -  nocc_ = -0.00885460
 On Iteration in Bisection 4
 a: -0.00885  b:-3.00179

 0.17536 = (-0.30461 + 0.65533)/2.0
 sum -  nocc_ = 0.97080324
 On Iteration in Bisection 5
 a: 0.97080  b:-0.00885

 -0.06462 = (-0.30461 + 0.17536)/2.0
 sum -  nocc_ = 0.42737105
 On Iteration in Bisection 6
 a: 0.42737  b:-0.00885

 -0.18461 = (-0.30461 + -0.06462)/2.0
 sum -  nocc_ = 0.09724699
 On Iteration in Bisection 7
 a: 0.09725  b:-0.00885

 -0.24461 = (-0.30461 + -0.18461)/2.0
 sum -  nocc_ = 0.03184091
 On Iteration in Bisection 8
 a: 0.03184  b:-0.00885

 -0.27461 = (-0.30461 + -0.24461)/2.0
 sum -  nocc_ = 0.01050003
 On Iteration in Bisection 9
 a: 0.01050  b:-0.00885

 -0.28961 = (-0.30461 + -0.27461)/2.0
 sum -  nocc_ = 0.00082017
 On Iteration in Bisection 10
 a: 0.00082  b:-0.00885

 -0.29711 = (-0.30461 + -0.28961)/2.0
 sum -  nocc_ = -0.00398715
 On Iteration in Bisection 11
 a: -0.00399  b:-0.00885

 -0.29336 = (-0.29711 + -0.28961)/2.0
 sum -  nocc_ = -0.00157984
 On Iteration in Bisection 12
 a: -0.00158  b:-0.00399

 -0.29148 = (-0.29336 + -0.28961)/2.0
 sum -  nocc_ = -0.00037940
 On Iteration in Bisection 13
 a: -0.00038  b:-0.00158

 -0.29054 = (-0.29148 + -0.28961)/2.0
 sum -  nocc_ = 0.00022043
 On Iteration in Bisection 14
 a: 0.00022  b:-0.00038

 -0.29101 = (-0.29148 + -0.29054)/2.0
 sum -  nocc_ = -0.00007947
 On Iteration in Bisection 15
 a: -0.00008  b:-0.00038

 -0.29078 = (-0.29101 + -0.29054)/2.0
 sum -  nocc_ = 0.00007049
 On Iteration in Bisection 16
 a: 0.00007  b:-0.00008

 -0.29090 = (-0.29101 + -0.29078)/2.0
 sum -  nocc_ = -0.00000449
 On Iteration in Bisection 17
 a: -0.00000  b:-0.00008

 -0.29084 = (-0.29090 + -0.29078)/2.0
 sum -  nocc_ = 0.00003300
 On Iteration in Bisection 18
 a: 0.00003  b:-0.00000

 -0.29087 = (-0.29090 + -0.29084)/2.0
 sum -  nocc_ = 0.00001426
 On Iteration in Bisection 19
 a: 0.00001  b:-0.00000

 -0.29088 = (-0.29090 + -0.29087)/2.0
 sum -  nocc_ = 0.00000488
 On Iteration in Bisection 20
 a: 0.00000  b:-0.00000

 -0.29089 = (-0.29090 + -0.29088)/2.0
 sum -  nocc_ = 0.00000020
 On Iteration in Bisection 21
 a: 0.00000  b:-0.00000

 -0.29089 = (-0.29090 + -0.29089)/2.0
 sum -  nocc_ = -0.00000215
 On Iteration in Bisection 22
 a: -0.00000  b:-0.00000

 -0.29089 = (-0.29089 + -0.29089)/2.0
 sum -  nocc_ = -0.00000097
 On Iteration in Bisection 23
 a: -0.00000  b:-0.00000

 -0.29089 = (-0.29089 + -0.29089)/2.0
 sum -  nocc_ = -0.00000039
 On Iteration in Bisection 24
 a: -0.00000  b:-0.00000

 -0.29089 = (-0.29089 + -0.29089)/2.0
 sum -  nocc_ = -0.00000010
 On Iteration in Bisection 25
 a: -0.00000  b:-0.00000

 -0.29089 = (-0.29089 + -0.29089)/2.0
 sum -  nocc_ = 0.00000005
 On Iteration in Bisection 26
 a: 0.00000  b:-0.00000

 -0.29089 = (-0.29089 + -0.29089)/2.0
 sum -  nocc_ = -0.00000002
 On Iteration in Bisection 27
 a: -0.00000  b:-0.00000

 -0.29089 = (-0.29089 + -0.29089)/2.0
 sum -  nocc_ = 0.00000001
 On Iteration in Bisection 28
 a: 0.00000  b:-0.00000

 -0.29089 = (-0.29089 + -0.29089)/2.0
 sum -  nocc_ = -0.00000000
 ef = -0.29089 sum = 5.00000 

 Iter: 1  T:    20000.000  val:-0.290888  sumni 0.00000
 ne = 5.0000

 iter:2  failiter:2  energy:   -104.861671499272  total:   -100.892842434847  error:     -1.874392313694
 In Bisection function HOMO = -25.934  LUMO =  4.749

 -10.59242 = (-25.93395 + 4.74910)/2.0
 sum -  nocc_ = -4.00000000
 On Iteration in Bisection 0
 a: -4.00000  b:-4.50000

 -2.92166 = (-10.59242 + 4.74910)/2.0
 sum -  nocc_ = -4.00000000
 On Iteration in Bisection 1
 a: -4.00000  b:-4.00000

 0.91372 = (-2.92166 + 4.74910)/2.0
 sum -  nocc_ = 1.99672911
 On Iteration in Bisection 2
 a: 1.99673  b:-4.00000

 -1.00397 = (-2.92166 + 0.91372)/2.0
 sum -  nocc_ = -3.00081018
 On Iteration in Bisection 3
 a: -3.00081  b:-4.00000

 -0.04512 = (-1.00397 + 0.91372)/2.0
 sum -  nocc_ = 0.11519822
 On Iteration in Bisection 4
 a: 0.11520  b:-3.00081

 -0.52455 = (-1.00397 + -0.04512)/2.0
 sum -  nocc_ = -1.79066514
 On Iteration in Bisection 5
 a: -1.79067  b:-3.00081

 -0.28484 = (-0.52455 + -0.04512)/2.0
 sum -  nocc_ = -0.12746493
 On Iteration in Bisection 6
 a: -0.12746  b:-1.79067

 -0.16498 = (-0.28484 + -0.04512)/2.0
 sum -  nocc_ = -0.00083133
 On Iteration in Bisection 7
 a: -0.00083  b:-0.12746

 -0.10505 = (-0.16498 + -0.04512)/2.0
 sum -  nocc_ = 0.04145745
 On Iteration in Bisection 8
 a: 0.04146  b:-0.00083

 -0.13502 = (-0.16498 + -0.10505)/2.0
 sum -  nocc_ = 0.01852730
 On Iteration in Bisection 9
 a: 0.01853  b:-0.00083

 -0.15000 = (-0.16498 + -0.13502)/2.0
 sum -  nocc_ = 0.00864763
 On Iteration in Bisection 10
 a: 0.00865  b:-0.00083

 -0.15749 = (-0.16498 + -0.15000)/2.0
 sum -  nocc_ = 0.00388814
 On Iteration in Bisection 11
 a: 0.00389  b:-0.00083

 -0.16123 = (-0.16498 + -0.15749)/2.0
 sum -  nocc_ = 0.00152716
 On Iteration in Bisection 12
 a: 0.00153  b:-0.00083

 -0.16311 = (-0.16498 + -0.16123)/2.0
 sum -  nocc_ = 0.00034808
 On Iteration in Bisection 13
 a: 0.00035  b:-0.00083

 -0.16404 = (-0.16498 + -0.16311)/2.0
 sum -  nocc_ = -0.00024153
 On Iteration in Bisection 14
 a: -0.00024  b:-0.00083

 -0.16358 = (-0.16404 + -0.16311)/2.0
 sum -  nocc_ = 0.00005329
 On Iteration in Bisection 15
 a: 0.00005  b:-0.00024

 -0.16381 = (-0.16404 + -0.16358)/2.0
 sum -  nocc_ = -0.00009411
 On Iteration in Bisection 16
 a: -0.00009  b:-0.00024

 -0.16369 = (-0.16381 + -0.16358)/2.0
 sum -  nocc_ = -0.00002041
 On Iteration in Bisection 17
 a: -0.00002  b:-0.00009

 -0.16363 = (-0.16369 + -0.16358)/2.0
 sum -  nocc_ = 0.00001644
 On Iteration in Bisection 18
 a: 0.00002  b:-0.00002

 -0.16366 = (-0.16369 + -0.16363)/2.0
 sum -  nocc_ = -0.00000198
 On Iteration in Bisection 19
 a: -0.00000  b:-0.00002

 -0.16365 = (-0.16366 + -0.16363)/2.0
 sum -  nocc_ = 0.00000723
 On Iteration in Bisection 20
 a: 0.00001  b:-0.00000

 -0.16366 = (-0.16366 + -0.16365)/2.0
 sum -  nocc_ = 0.00000262
 On Iteration in Bisection 21
 a: 0.00000  b:-0.00000

 -0.16366 = (-0.16366 + -0.16366)/2.0
 sum -  nocc_ = 0.00000032
 On Iteration in Bisection 22
 a: 0.00000  b:-0.00000

 -0.16366 = (-0.16366 + -0.16366)/2.0
 sum -  nocc_ = -0.00000083
 On Iteration in Bisection 23
 a: -0.00000  b:-0.00000

 -0.16366 = (-0.16366 + -0.16366)/2.0
 sum -  nocc_ = -0.00000026
 On Iteration in Bisection 24
 a: -0.00000  b:-0.00000

 -0.16366 = (-0.16366 + -0.16366)/2.0
 sum -  nocc_ = 0.00000003
 On Iteration in Bisection 25
[...]

 -0.22189 = (-0.22236 + -0.22142)/2.0
 sum -  nocc_ = 0.00000080
 On Iteration in Bisection 15
 a: 0.00000  b:-0.00008

 -0.22212 = (-0.22236 + -0.22189)/2.0
 sum -  nocc_ = -0.00004188
 On Iteration in Bisection 16
 a: -0.00004  b:-0.00008

 -0.22201 = (-0.22212 + -0.22189)/2.0
 sum -  nocc_ = -0.00002054
 On Iteration in Bisection 17
 a: -0.00002  b:-0.00004

 -0.22195 = (-0.22201 + -0.22189)/2.0
 sum -  nocc_ = -0.00000987
 On Iteration in Bisection 18
 a: -0.00001  b:-0.00002

 -0.22192 = (-0.22195 + -0.22189)/2.0
 sum -  nocc_ = -0.00000454
 On Iteration in Bisection 19
 a: -0.00000  b:-0.00001

 -0.22190 = (-0.22192 + -0.22189)/2.0
 sum -  nocc_ = -0.00000187
 On Iteration in Bisection 20
 a: -0.00000  b:-0.00000

 -0.22190 = (-0.22190 + -0.22189)/2.0
 sum -  nocc_ = -0.00000054
 On Iteration in Bisection 21
 a: -0.00000  b:-0.00000

 -0.22189 = (-0.22190 + -0.22189)/2.0
 sum -  nocc_ = 0.00000013
 On Iteration in Bisection 22
 a: 0.00000  b:-0.00000

 -0.22189 = (-0.22190 + -0.22189)/2.0
 sum -  nocc_ = -0.00000020
 On Iteration in Bisection 23
 a: -0.00000  b:-0.00000

 -0.22189 = (-0.22189 + -0.22189)/2.0
 sum -  nocc_ = -0.00000004
 On Iteration in Bisection 24
 a: -0.00000  b:-0.00000

 -0.22189 = (-0.22189 + -0.22189)/2.0
 sum -  nocc_ = 0.00000005
 On Iteration in Bisection 25
 a: 0.00000  b:-0.00000

 -0.22189 = (-0.22189 + -0.22189)/2.0
 sum -  nocc_ = 0.00000000
 ef = -0.22189 sum = 5.00000 

 Iter: 64  T:    20000.000  val:-0.221893  sumni 0.00000
 ne = 5.0000

 iter:65  failiter:65  energy:   -103.920056759228  total:    -99.951227694803  error:      0.000000000011
 In Bisection function HOMO = -26.283  LUMO =  4.625

 -10.82894 = (-26.28276 + 4.62488)/2.0
 sum -  nocc_ = -4.00000000
 On Iteration in Bisection 0
 a: -4.00000  b:-4.50000

 -3.10203 = (-10.82894 + 4.62488)/2.0
 sum -  nocc_ = -4.00000000
 On Iteration in Bisection 1
 a: -4.00000  b:-4.00000

 0.76142 = (-3.10203 + 4.62488)/2.0
 sum -  nocc_ = 1.88871715
 On Iteration in Bisection 2
 a: 1.88872  b:-4.00000

 -1.17030 = (-3.10203 + 0.76142)/2.0
 sum -  nocc_ = -3.00359627
 On Iteration in Bisection 3
 a: -3.00360  b:-4.00000

 -0.20444 = (-1.17030 + 0.76142)/2.0
 sum -  nocc_ = 0.00319544
 On Iteration in Bisection 4
 a: 0.00320  b:-3.00360

 -0.68737 = (-1.17030 + -0.20444)/2.0
 sum -  nocc_ = -2.21355235
 On Iteration in Bisection 5
 a: -2.21355  b:-3.00360

 -0.44590 = (-0.68737 + -0.20444)/2.0
 sum -  nocc_ = -0.18494299
 On Iteration in Bisection 6
 a: -0.18494  b:-2.21355

 -0.32517 = (-0.44590 + -0.20444)/2.0
 sum -  nocc_ = -0.02800883
 On Iteration in Bisection 7
 a: -0.02801  b:-0.18494

 -0.26481 = (-0.32517 + -0.20444)/2.0
 sum -  nocc_ = -0.00837611
 On Iteration in Bisection 8
 a: -0.00838  b:-0.02801

 -0.23462 = (-0.26481 + -0.20444)/2.0
 sum -  nocc_ = -0.00232013
 On Iteration in Bisection 9
 a: -0.00232  b:-0.00838

 -0.21953 = (-0.23462 + -0.20444)/2.0
 sum -  nocc_ = 0.00042760
 On Iteration in Bisection 10
 a: 0.00043  b:-0.00232

 -0.22708 = (-0.23462 + -0.21953)/2.0
 sum -  nocc_ = -0.00093929
 On Iteration in Bisection 11
 a: -0.00094  b:-0.00232

 -0.22330 = (-0.22708 + -0.21953)/2.0
 sum -  nocc_ = -0.00025529
 On Iteration in Bisection 12
 a: -0.00026  b:-0.00094

 -0.22142 = (-0.22330 + -0.21953)/2.0
 sum -  nocc_ = 0.00008615
 On Iteration in Bisection 13
 a: 0.00009  b:-0.00026

 -0.22236 = (-0.22330 + -0.22142)/2.0
 sum -  nocc_ = -0.00008456
 On Iteration in Bisection 14
 a: -0.00008  b:-0.00026

 -0.22189 = (-0.22236 + -0.22142)/2.0
 sum -  nocc_ = 0.00000080
 On Iteration in Bisection 15
 a: 0.00000  b:-0.00008

 -0.22212 = (-0.22236 + -0.22189)/2.0
 sum -  nocc_ = -0.00004188
 On Iteration in Bisection 16
 a: -0.00004  b:-0.00008

 -0.22201 = (-0.22212 + -0.22189)/2.0
 sum -  nocc_ = -0.00002054
 On Iteration in Bisection 17
 a: -0.00002  b:-0.00004

 -0.22195 = (-0.22201 + -0.22189)/2.0
 sum -  nocc_ = -0.00000987
 On Iteration in Bisection 18
 a: -0.00001  b:-0.00002

 -0.22192 = (-0.22195 + -0.22189)/2.0
 sum -  nocc_ = -0.00000454
 On Iteration in Bisection 19
 a: -0.00000  b:-0.00001

 -0.22190 = (-0.22192 + -0.22189)/2.0
 sum -  nocc_ = -0.00000187
 On Iteration in Bisection 20
 a: -0.00000  b:-0.00000

 -0.22190 = (-0.22190 + -0.22189)/2.0
 sum -  nocc_ = -0.00000054
 On Iteration in Bisection 21
 a: -0.00000  b:-0.00000

 -0.22189 = (-0.22190 + -0.22189)/2.0
 sum -  nocc_ = 0.00000013
 On Iteration in Bisection 22
 a: 0.00000  b:-0.00000

 -0.22189 = (-0.22190 + -0.22189)/2.0
 sum -  nocc_ = -0.00000020
 On Iteration in Bisection 23
 a: -0.00000  b:-0.00000

 -0.22189 = (-0.22189 + -0.22189)/2.0
 sum -  nocc_ = -0.00000004
 On Iteration in Bisection 24
 a: -0.00000  b:-0.00000

 -0.22189 = (-0.22189 + -0.22189)/2.0
 sum -  nocc_ = 0.00000005
 On Iteration in Bisection 25
 a: 0.00000  b:-0.00000

 -0.22189 = (-0.22189 + -0.22189)/2.0
 sum -  nocc_ = 0.00000000
 ef = -0.22189 sum = 5.00000 

 Iter: 65  T:    20000.000  val:-0.221893  sumni 0.00000
 ne = 5.0000

 iter:66  failiter:66  energy:   -103.920056759234  total:    -99.951227694809  error:     -0.000000000006
 In Bisection function HOMO = -26.283  LUMO =  4.625

 -10.82894 = (-26.28276 + 4.62488)/2.0
 sum -  nocc_ = -4.00000000
 On Iteration in Bisection 0
 a: -4.00000  b:-4.50000

 -3.10203 = (-10.82894 + 4.62488)/2.0
 sum -  nocc_ = -4.00000000
 On Iteration in Bisection 1
 a: -4.00000  b:-4.00000

 0.76142 = (-3.10203 + 4.62488)/2.0
 sum -  nocc_ = 1.88871715
 On Iteration in Bisection 2
 a: 1.88872  b:-4.00000

 -1.17030 = (-3.10203 + 0.76142)/2.0
 sum -  nocc_ = -3.00359627
 On Iteration in Bisection 3
 a: -3.00360  b:-4.00000

 -0.20444 = (-1.17030 + 0.76142)/2.0
 sum -  nocc_ = 0.00319544
 On Iteration in Bisection 4
 a: 0.00320  b:-3.00360

 -0.68737 = (-1.17030 + -0.20444)/2.0
 sum -  nocc_ = -2.21355235
 On Iteration in Bisection 5
 a: -2.21355  b:-3.00360

 -0.44590 = (-0.68737 + -0.20444)/2.0
 sum -  nocc_ = -0.18494299
 On Iteration in Bisection 6
 a: -0.18494  b:-2.21355

 -0.32517 = (-0.44590 + -0.20444)/2.0
 sum -  nocc_ = -0.02800883
 On Iteration in Bisection 7
 a: -0.02801  b:-0.18494

 -0.26481 = (-0.32517 + -0.20444)/2.0
 sum -  nocc_ = -0.00837611
 On Iteration in Bisection 8
 a: -0.00838  b:-0.02801

 -0.23462 = (-0.26481 + -0.20444)/2.0
 sum -  nocc_ = -0.00232013
 On Iteration in Bisection 9
 a: -0.00232  b:-0.00838

 -0.21953 = (-0.23462 + -0.20444)/2.0
 sum -  nocc_ = 0.00042760
 On Iteration in Bisection 10
 a: 0.00043  b:-0.00232

 -0.22708 = (-0.23462 + -0.21953)/2.0
 sum -  nocc_ = -0.00093929
 On Iteration in Bisection 11
 a: -0.00094  b:-0.00232

 -0.22330 = (-0.22708 + -0.21953)/2.0
 sum -  nocc_ = -0.00025529
 On Iteration in Bisection 12
 a: -0.00026  b:-0.00094

 -0.22142 = (-0.22330 + -0.21953)/2.0
 sum -  nocc_ = 0.00008615
 On Iteration in Bisection 13
 a: 0.00009  b:-0.00026

 -0.22236 = (-0.22330 + -0.22142)/2.0
 sum -  nocc_ = -0.00008456
 On Iteration in Bisection 14
 a: -0.00008  b:-0.00026

 -0.22189 = (-0.22236 + -0.22142)/2.0
 sum -  nocc_ = 0.00000080
 On Iteration in Bisection 15
 a: 0.00000  b:-0.00008

 -0.22212 = (-0.22236 + -0.22189)/2.0
 sum -  nocc_ = -0.00004188
 On Iteration in Bisection 16
 a: -0.00004  b:-0.00008

 -0.22201 = (-0.22212 + -0.22189)/2.0
 sum -  nocc_ = -0.00002054
 On Iteration in Bisection 17
 a: -0.00002  b:-0.00004

 -0.22195 = (-0.22201 + -0.22189)/2.0
 sum -  nocc_ = -0.00000987
 On Iteration in Bisection 18
 a: -0.00001  b:-0.00002

 -0.22192 = (-0.22195 + -0.22189)/2.0
 sum -  nocc_ = -0.00000454
 On Iteration in Bisection 19
 a: -0.00000  b:-0.00001

 -0.22190 = (-0.22192 + -0.22189)/2.0
 sum -  nocc_ = -0.00000187
 On Iteration in Bisection 20
 a: -0.00000  b:-0.00000

 -0.22190 = (-0.22190 + -0.22189)/2.0
 sum -  nocc_ = -0.00000054
 On Iteration in Bisection 21
 a: -0.00000  b:-0.00000

 -0.22189 = (-0.22190 + -0.22189)/2.0
 sum -  nocc_ = 0.00000013
 On Iteration in Bisection 22
 a: 0.00000  b:-0.00000

 -0.22189 = (-0.22190 + -0.22189)/2.0
 sum -  nocc_ = -0.00000020
 On Iteration in Bisection 23
 a: -0.00000  b:-0.00000

 -0.22189 = (-0.22189 + -0.22189)/2.0
 sum -  nocc_ = -0.00000004
 On Iteration in Bisection 24
 a: -0.00000  b:-0.00000

 -0.22189 = (-0.22189 + -0.22189)/2.0
 sum -  nocc_ = 0.00000005
 On Iteration in Bisection 25
 a: 0.00000  b:-0.00000

 -0.22189 = (-0.22189 + -0.22189)/2.0
 sum -  nocc_ = 0.00000000
 ef = -0.22189 sum = 5.00000 

 Iter: 66  T:    20000.000  val:-0.221893  sumni 0.00000
 ne = 5.0000

 iter:67  failiter:67  energy:   -103.920056759230  total:    -99.951227694805  error:      0.000000000004
 In Bisection function HOMO = -26.283  LUMO =  4.625

 -10.82894 = (-26.28276 + 4.62488)/2.0
 sum -  nocc_ = -4.00000000
 On Iteration in Bisection 0
 a: -4.00000  b:-4.50000

 -3.10203 = (-10.82894 + 4.62488)/2.0
 sum -  nocc_ = -4.00000000
 On Iteration in Bisection 1
 a: -4.00000  b:-4.00000

 0.76142 = (-3.10203 + 4.62488)/2.0
 sum -  nocc_ = 1.88871715
 On Iteration in Bisection 2
 a: 1.88872  b:-4.00000

 -1.17030 = (-3.10203 + 0.76142)/2.0
 sum -  nocc_ = -3.00359627
 On Iteration in Bisection 3
 a: -3.00360  b:-4.00000

 -0.20444 = (-1.17030 + 0.76142)/2.0
 sum -  nocc_ = 0.00319544
 On Iteration in Bisection 4
 a: 0.00320  b:-3.00360

 -0.68737 = (-1.17030 + -0.20444)/2.0
 sum -  nocc_ = -2.21355235
 On Iteration in Bisection 5
 a: -2.21355  b:-3.00360

 -0.44590 = (-0.68737 + -0.20444)/2.0
 sum -  nocc_ = -0.18494299
 On Iteration in Bisection 6
 a: -0.18494  b:-2.21355

 -0.32517 = (-0.44590 + -0.20444)/2.0
 sum -  nocc_ = -0.02800883
 On Iteration in Bisection 7
 a: -0.02801  b:-0.18494

 -0.26481 = (-0.32517 + -0.20444)/2.0
 sum -  nocc_ = -0.00837611
 On Iteration in Bisection 8
 a: -0.00838  b:-0.02801

 -0.23462 = (-0.26481 + -0.20444)/2.0
 sum -  nocc_ = -0.00232013
 On Iteration in Bisection 9
 a: -0.00232  b:-0.00838

 -0.21953 = (-0.23462 + -0.20444)/2.0
 sum -  nocc_ = 0.00042760
 On Iteration in Bisection 10
 a: 0.00043  b:-0.00232

 -0.22708 = (-0.23462 + -0.21953)/2.0
 sum -  nocc_ = -0.00093929
 On Iteration in Bisection 11
 a: -0.00094  b:-0.00232

 -0.22330 = (-0.22708 + -0.21953)/2.0
 sum -  nocc_ = -0.00025529
 On Iteration in Bisection 12
 a: -0.00026  b:-0.00094

 -0.22142 = (-0.22330 + -0.21953)/2.0
 sum -  nocc_ = 0.00008615
 On Iteration in Bisection 13
 a: 0.00009  b:-0.00026

 -0.22236 = (-0.22330 + -0.22142)/2.0
 sum -  nocc_ = -0.00008456
 On Iteration in Bisection 14
 a: -0.00008  b:-0.00026

 -0.22189 = (-0.22236 + -0.22142)/2.0
 sum -  nocc_ = 0.00000080
 On Iteration in Bisection 15
 a: 0.00000  b:-0.00008

 -0.22212 = (-0.22236 + -0.22189)/2.0
 sum -  nocc_ = -0.00004188
 On Iteration in Bisection 16
 a: -0.00004  b:-0.00008

 -0.22201 = (-0.22212 + -0.22189)/2.0
 sum -  nocc_ = -0.00002054
 On Iteration in Bisection 17
 a: -0.00002  b:-0.00004

 -0.22195 = (-0.22201 + -0.22189)/2.0
 sum -  nocc_ = -0.00000987
 On Iteration in Bisection 18
 a: -0.00001  b:-0.00002

 -0.22192 = (-0.22195 + -0.22189)/2.0
 sum -  nocc_ = -0.00000454
 On Iteration in Bisection 19
 a: -0.00000  b:-0.00001

 -0.22190 = (-0.22192 + -0.22189)/2.0
 sum -  nocc_ = -0.00000187
 On Iteration in Bisection 20
 a: -0.00000  b:-0.00000

 -0.22190 = (-0.22190 + -0.22189)/2.0
 sum -  nocc_ = -0.00000054
 On Iteration in Bisection 21
 a: -0.00000  b:-0.00000

 -0.22189 = (-0.22190 + -0.22189)/2.0
 sum -  nocc_ = 0.00000013
 On Iteration in Bisection 22
 a: 0.00000  b:-0.00000

 -0.22189 = (-0.22190 + -0.22189)/2.0
 sum -  nocc_ = -0.00000020
 On Iteration in Bisection 23
 a: -0.00000  b:-0.00000

 -0.22189 = (-0.22189 + -0.22189)/2.0
 sum -  nocc_ = -0.00000004
 On Iteration in Bisection 24
 a: -0.00000  b:-0.00000

 -0.22189 = (-0.22189 + -0.22189)/2.0
 sum -  nocc_ = 0.00000005
 On Iteration in Bisection 25
 a: 0.00000  b:-0.00000

 -0.22189 = (-0.22189 + -0.22189)/2.0
 sum -  nocc_ = 0.00000000
 ef = -0.22189 sum = 5.00000 

 Iter: 67  T:    20000.000  val:-0.221893  sumni 0.00000
 ne = 5.0000

 iter:68  failiter:68  energy:   -103.920056759233  total:    -99.951227694808  error:     -0.000000000002
 In Bisection function HOMO = -26.283  LUMO =  4.625

 -10.82894 = (-26.28276 + 4.62488)/2.0
 sum -  nocc_ = -4.00000000
 On Iteration in Bisection 0
 a: -4.00000  b:-4.50000

 -3.10203 = (-10.82894 + 4.62488)/2.0
 sum -  nocc_ = -4.00000000
 On Iteration in Bisection 1
 a: -4.00000  b:-4.00000

 0.76142 = (-3.10203 + 4.62488)/2.0
 sum -  nocc_ = 1.88871715
 On Iteration in Bisection 2
 a: 1.88872  b:-4.00000

 -1.17030 = (-3.10203 + 0.76142)/2.0
 sum -  nocc_ = -3.00359627
 On Iteration in Bisection 3
 a: -3.00360  b:-4.00000

 -0.20444 = (-1.17030 + 0.76142)/2.0
 sum -  nocc_ = 0.00319544
 On Iteration in Bisection 4
 a: 0.00320  b:-3.00360

 -0.68737 = (-1.17030 + -0.20444)/2.0
 sum -  nocc_ = -2.21355235
 On Iteration in Bisection 5
 a: -2.21355  b:-3.00360

 -0.44590 = (-0.68737 + -0.20444)/2.0
 sum -  nocc_ = -0.18494299
 On Iteration in Bisection 6
 a: -0.18494  b:-2.21355

 -0.32517 = (-0.44590 + -0.20444)/2.0
 sum -  nocc_ = -0.02800883
 On Iteration in Bisection 7
 a: -0.02801  b:-0.18494

 -0.26481 = (-0.32517 + -0.20444)/2.0
 sum -  nocc_ = -0.00837611
 On Iteration in Bisection 8
 a: -0.00838  b:-0.02801

 -0.23462 = (-0.26481 + -0.20444)/2.0
 sum -  nocc_ = -0.00232013
 On Iteration in Bisection 9
 a: -0.00232  b:-0.00838

 -0.21953 = (-0.23462 + -0.20444)/2.0
 sum -  nocc_ = 0.00042760
 On Iteration in Bisection 10
 a: 0.00043  b:-0.00232

 -0.22708 = (-0.23462 + -0.21953)/2.0
 sum -  nocc_ = -0.00093929
 On Iteration in Bisection 11
 a: -0.00094  b:-0.00232

 -0.22330 = (-0.22708 + -0.21953)/2.0
 sum -  nocc_ = -0.00025529
 On Iteration in Bisection 12
 a: -0.00026  b:-0.00094

 -0.22142 = (-0.22330 + -0.21953)/2.0
 sum -  nocc_ = 0.00008615
 On Iteration in Bisection 13
 a: 0.00009  b:-0.00026

 -0.22236 = (-0.22330 + -0.22142)/2.0
 sum -  nocc_ = -0.00008456
 On Iteration in Bisection 14
 a: -0.00008  b:-0.00026

 -0.22189 = (-0.22236 + -0.22142)/2.0
 sum -  nocc_ = 0.00000080
 On Iteration in Bisection 15
 a: 0.00000  b:-0.00008

 -0.22212 = (-0.22236 + -0.22189)/2.0
 sum -  nocc_ = -0.00004188
 On Iteration in Bisection 16
 a: -0.00004  b:-0.00008

 -0.22201 = (-0.22212 + -0.22189)/2.0
 sum -  nocc_ = -0.00002054
 On Iteration in Bisection 17
 a: -0.00002  b:-0.00004

 -0.22195 = (-0.22201 + -0.22189)/2.0
 sum -  nocc_ = -0.00000987
 On Iteration in Bisection 18
 a: -0.00001  b:-0.00002

 -0.22192 = (-0.22195 + -0.22189)/2.0
 sum -  nocc_ = -0.00000454
 On Iteration in Bisection 19
 a: -0.00000  b:-0.00001

 -0.22190 = (-0.22192 + -0.22189)/2.0
 sum -  nocc_ = -0.00000187
 On Iteration in Bisection 20
 a: -0.00000  b:-0.00000

 -0.22190 = (-0.22190 + -0.22189)/2.0
 sum -  nocc_ = -0.00000054
 On Iteration in Bisection 21
 a: -0.00000  b:-0.00000

 -0.22189 = (-0.22190 + -0.22189)/2.0
 sum -  nocc_ = 0.00000013
 On Iteration in Bisection 22
 a: 0.00000  b:-0.00000

 -0.22189 = (-0.22190 + -0.22189)/2.0
 sum -  nocc_ = -0.00000020
 On Iteration in Bisection 23
 a: -0.00000  b:-0.00000

 -0.22189 = (-0.22189 + -0.22189)/2.0
 sum -  nocc_ = -0.00000004
 On Iteration in Bisection 24
 a: -0.00000  b:-0.00000

 -0.22189 = (-0.22189 + -0.22189)/2.0
 sum -  nocc_ = 0.00000005
 On Iteration in Bisection 25
 a: 0.00000  b:-0.00000

 -0.22189 = (-0.22189 + -0.22189)/2.0
 sum -  nocc_ = 0.00000000
 ef = -0.22189 sum = 5.00000 

 Iter: 68  T:    20000.000  val:-0.221893  sumni 0.00000
 ne = 5.0000

 iter:69  failiter:69  energy:   -103.920056759231  total:    -99.951227694806  error:      0.000000000001
 In Bisection function HOMO = -26.283  LUMO =  4.625

 -10.82894 = (-26.28276 + 4.62488)/2.0
 sum -  nocc_ = -4.00000000
 On Iteration in Bisection 0
 a: -4.00000  b:-4.50000

 -3.10203 = (-10.82894 + 4.62488)/2.0
 sum -  nocc_ = -4.00000000
 On Iteration in Bisection 1
 a: -4.00000  b:-4.00000

 0.76142 = (-3.10203 + 4.62488)/2.0
 sum -  nocc_ = 1.88871715
 On Iteration in Bisection 2
 a: 1.88872  b:-4.00000

 -1.17030 = (-3.10203 + 0.76142)/2.0
 sum -  nocc_ = -3.00359627
 On Iteration in Bisection 3
 a: -3.00360  b:-4.00000

 -0.20444 = (-1.17030 + 0.76142)/2.0
 sum -  nocc_ = 0.00319544
 On Iteration in Bisection 4
 a: 0.00320  b:-3.00360

 -0.68737 = (-1.17030 + -0.20444)/2.0
 sum -  nocc_ = -2.21355235
 On Iteration in Bisection 5
 a: -2.21355  b:-3.00360

 -0.44590 = (-0.68737 + -0.20444)/2.0
 sum -  nocc_ = -0.18494299
 On Iteration in Bisection 6
 a: -0.18494  b:-2.21355

 -0.32517 = (-0.44590 + -0.20444)/2.0
 sum -  nocc_ = -0.02800883
 On Iteration in Bisection 7
 a: -0.02801  b:-0.18494

 -0.26481 = (-0.32517 + -0.20444)/2.0
 sum -  nocc_ = -0.00837611
 On Iteration in Bisection 8
 a: -0.00838  b:-0.02801

 -0.23462 = (-0.26481 + -0.20444)/2.0
 sum -  nocc_ = -0.00232013
 On Iteration in Bisection 9
 a: -0.00232  b:-0.00838

 -0.21953 = (-0.23462 + -0.20444)/2.0
 sum -  nocc_ = 0.00042760
 On Iteration in Bisection 10
 a: 0.00043  b:-0.00232

 -0.22708 = (-0.23462 + -0.21953)/2.0
 sum -  nocc_ = -0.00093929
 On Iteration in Bisection 11
 a: -0.00094  b:-0.00232

 -0.22330 = (-0.22708 + -0.21953)/2.0
 sum -  nocc_ = -0.00025529
 On Iteration in Bisection 12
 a: -0.00026  b:-0.00094

 -0.22142 = (-0.22330 + -0.21953)/2.0
 sum -  nocc_ = 0.00008615
 On Iteration in Bisection 13
 a: 0.00009  b:-0.00026

 -0.22236 = (-0.22330 + -0.22142)/2.0
 sum -  nocc_ = -0.00008456
 On Iteration in Bisection 14
 a: -0.00008  b:-0.00026

 -0.22189 = (-0.22236 + -0.22142)/2.0
 sum -  nocc_ = 0.00000080
 On Iteration in Bisection 15
 a: 0.00000  b:-0.00008

 -0.22212 = (-0.22236 + -0.22189)/2.0
 sum -  nocc_ = -0.00004188
 On Iteration in Bisection 16
 a: -0.00004  b:-0.00008

 -0.22201 = (-0.22212 + -0.22189)/2.0
 sum -  nocc_ = -0.00002054
 On Iteration in Bisection 17
 a: -0.00002  b:-0.00004

 -0.22195 = (-0.22201 + -0.22189)/2.0
 sum -  nocc_ = -0.00000987
 On Iteration in Bisection 18
 a: -0.00001  b:-0.00002

 -0.22192 = (-0.22195 + -0.22189)/2.0
 sum -  nocc_ = -0.00000454
 On Iteration in Bisection 19
 a: -0.00000  b:-0.00001

 -0.22190 = (-0.22192 + -0.22189)/2.0
 sum -  nocc_ = -0.00000187
 On Iteration in Bisection 20
 a: -0.00000  b:-0.00000

 -0.22190 = (-0.22190 + -0.22189)/2.0
 sum -  nocc_ = -0.00000054
 On Iteration in Bisection 21
 a: -0.00000  b:-0.00000

 -0.22189 = (-0.22190 + -0.22189)/2.0
 sum -  nocc_ = 0.00000013
 On Iteration in Bisection 22
 a: 0.00000  b:-0.00000

 -0.22189 = (-0.22190 + -0.22189)/2.0
 sum -  nocc_ = -0.00000020
 On Iteration in Bisection 23
 a: -0.00000  b:-0.00000

 -0.22189 = (-0.22189 + -0.22189)/2.0
 sum -  nocc_ = -0.00000004
 On Iteration in Bisection 24
 a: -0.00000  b:-0.00000

 -0.22189 = (-0.22189 + -0.22189)/2.0
 sum -  nocc_ = 0.00000005
 On Iteration in Bisection 25
 a: 0.00000  b:-0.00000

 -0.22189 = (-0.22189 + -0.22189)/2.0
 sum -  nocc_ = 0.00000000
 ef = -0.22189 sum = 5.00000 

 Iter: 69  T:    20000.000  val:-0.221893  sumni 0.00000
 ne = 5.0000

 iter:70  failiter:70  energy:   -103.920056759232  total:    -99.951227694807  error:     -0.000000000001
 FTHFEnergy =   -99.951228
 FD_dis[0] = 1.00000000 with -26.282761 eig value
 FD_dis[1] = 1.00000000 with -1.517705 eig value
 FD_dis[2] = 0.99878537 with -0.646987 eig value
 FD_dis[3] = 0.99773072 with -0.607336 eig value
 FD_dis[4] = 0.99773072 with -0.607336 eig value
 FD_dis[5] = 0.00575176 with 0.104427 eig value
 FD_dis[6] = 0.00000144 with 0.629983 eig value
 FD_dis[7] = 0.00000000 with 1.330718 eig value
 FD_dis[8] = 0.00000000 with 1.330718 eig value
 FD_dis[9] = 0.00000000 with 1.530607 eig value
 FD_dis[10] = 0.00000000 with 1.631804 eig value
 FD_dis[11] = 0.00000000 with 1.631804 eig value
 FD_dis[12] = 0.00000000 with 1.849423 eig value
 FD_dis[13] = 0.00000000 with 2.248894 eig value
 FD_dis[14] = 0.00000000 with 4.025056 eig value
 FD_dis[15] = 0.00000000 with 4.025056 eig value
 FD_dis[16] = 0.00000000 with 4.090383 eig value
 FD_dis[17] = 0.00000000 with 4.090383 eig value
 FD_dis[18] = 0.00000000 with 4.624880 eig value
*** PSI4 exiting successfully. Buy a developer a beer!
