
Host: Kevins-MacBook-Pro.local

Timers On : Mon Jan 12 10:40:54 2015
Timers Off: Mon Jan 12 10:40:55 2015

Wall Time:        1.00 seconds

JK: (A|mn)  :       0.00u       0.00s       0.00w      1 call
JK: (A|Q)^-1/2:       0.02u       0.00s       0.00w      1 call
JK: (Q|mn)  :       0.00u       0.00s       0.00w      1 call
Form H      :       0.00u       0.00s       0.00w      1 call
Form S/X    :       0.00u       0.00s       0.00w      1 call
Guess       :       0.00u       0.00s       0.00w      1 call
Form G      :       0.00u       0.00s       0.00w     13 calls
JK: D       :       0.00u       0.00s       0.00w     13 calls
JK: USO2AO  :       0.00u       0.00s       0.00w      8 calls
JK: JK      :       0.00u       0.00s       0.00w     13 calls
JK: J       :       0.00u       0.00s       0.00w      8 calls
JK: J1      :       0.00u       0.00s       0.00w      8 calls
JK: J2      :       0.00u       0.00s       0.00w      8 calls
JK: K       :       0.00u       0.00s       0.00w      8 calls
JK: K1      :       0.00u       0.00s       0.00w      8 calls
JK: K2      :       0.00u       0.00s       0.00w      8 calls
JK: AO2USO  :       0.00u       0.00s       0.00w      8 calls
Form F      :       0.00u       0.00s       0.00w     13 calls
DIIS        :       0.02u       0.00s       0.00w     13 calls
DIISManager::add_entry:       0.00u       0.00s       0.00w     13 calls
Form C      :       0.00u       0.00s       0.00w     13 calls
Form D      :       0.00u       0.00s       0.00w     13 calls
DIISManager::extrapolate:       0.00u       0.00s       0.00w     12 calls
DIISManager::extrapolate: bMatrix setup:       0.00u       0.00s       0.00w     12 calls
DIISManager::extrapolate: bMatrix pseudoinverse:       0.00u       0.00s       0.00w     12 calls
DIISManager::extrapolate: form new data:       0.00u       0.00s       0.00w     12 calls

***********************************************************

Host: Kevins-MacBook-Pro.local

Timers On : Mon Jan 12 10:45:06 2015
Timers Off: Mon Jan 12 10:45:06 2015

Wall Time:        0.00 seconds

JK: (A|mn)  :       0.00u       0.00s       0.00w      1 call
JK: (A|Q)^-1/2:       0.03u       0.00s       0.00w      1 call
JK: (Q|mn)  :       0.00u       0.00s       0.00w      1 call
Form H      :       0.00u       0.00s       0.00w      1 call
Form S/X    :       0.00u       0.00s       0.00w      1 call
Guess       :       0.00u       0.00s       0.00w      1 call
Form G      :       0.00u       0.00s       0.00w     13 calls
JK: D       :       0.00u       0.00s       0.00w     13 calls
JK: USO2AO  :       0.00u       0.00s       0.00w      8 calls
JK: JK      :       0.00u       0.00s       0.00w     13 calls
JK: J       :       0.00u       0.00s       0.00w      8 calls
JK: J1      :       0.00u       0.00s       0.00w      8 calls
JK: J2      :       0.00u       0.00s       0.00w      8 calls
JK: K       :       0.00u       0.00s       0.00w      8 calls
JK: K1      :       0.00u       0.00s       0.00w      8 calls
JK: K2      :       0.00u       0.00s       0.00w      8 calls
JK: AO2USO  :       0.00u       0.00s       0.00w      8 calls
Form F      :       0.00u       0.00s       0.00w     13 calls
DIIS        :       0.00u       0.00s       0.00w     13 calls
DIISManager::add_entry:       0.00u       0.00s       0.00w     13 calls
Form C      :       0.00u       0.00s       0.00w     13 calls
Form D      :       0.00u       0.00s       0.00w     13 calls
DIISManager::extrapolate:       0.00u       0.00s       0.00w     12 calls
DIISManager::extrapolate: bMatrix setup:       0.00u       0.00s       0.00w     12 calls
DIISManager::extrapolate: bMatrix pseudoinverse:       0.00u       0.00s       0.00w     12 calls
DIISManager::extrapolate: form new data:       0.00u       0.00s       0.00w     12 calls

***********************************************************

Host: Kevins-MacBook-Pro.local

Timers On : Mon Jan 12 10:45:22 2015
Timers Off: Mon Jan 12 10:45:22 2015

Wall Time:        0.00 seconds

JK: (A|mn)  :       0.00u       0.00s       0.00w      1 call
JK: (A|Q)^-1/2:       0.02u       0.00s       0.00w      1 call
JK: (Q|mn)  :       0.00u       0.00s       0.00w      1 call
Form H      :       0.00u       0.00s       0.00w      1 call
Form S/X    :       0.00u       0.00s       0.00w      1 call
Guess       :       0.00u       0.00s       0.00w      1 call
Form G      :       0.02u       0.00s       0.00w     13 calls
JK: D       :       0.00u       0.00s       0.00w     13 calls
JK: USO2AO  :       0.00u       0.00s       0.00w      8 calls
JK: JK      :       0.00u       0.00s       0.00w     13 calls
JK: J       :       0.00u       0.00s       0.00w      8 calls
JK: J1      :       0.00u       0.00s       0.00w      8 calls
JK: J2      :       0.00u       0.00s       0.00w      8 calls
JK: K       :       0.00u       0.00s       0.00w      8 calls
JK: K1      :       0.00u       0.00s       0.00w      8 calls
JK: K2      :       0.00u       0.00s       0.00w      8 calls
JK: AO2USO  :       0.00u       0.00s       0.00w      8 calls
Form F      :       0.00u       0.00s       0.00w     13 calls
DIIS        :       0.00u       0.00s       0.00w     13 calls
DIISManager::add_entry:       0.00u       0.00s       0.00w     13 calls
Form C      :       0.00u       0.00s       0.00w     13 calls
Form D      :       0.00u       0.00s       0.00w     13 calls
DIISManager::extrapolate:       0.00u       0.00s       0.00w     12 calls
DIISManager::extrapolate: bMatrix setup:       0.00u       0.00s       0.00w     12 calls
DIISManager::extrapolate: bMatrix pseudoinverse:       0.00u       0.00s       0.00w     12 calls
DIISManager::extrapolate: form new data:       0.00u       0.00s       0.00w     12 calls

***********************************************************

Host: Kevins-MacBook-Pro.local

Timers On : Mon Jan 12 10:56:30 2015
Timers Off: Mon Jan 12 10:56:31 2015

Wall Time:        1.00 seconds

JK: (A|mn)  :       0.02u       0.00s       0.00w      1 call
JK: (A|Q)^-1/2:       0.02u       0.00s       0.00w      1 call
JK: (Q|mn)  :       0.00u       0.00s       0.00w      1 call
Form H      :       0.00u       0.00s       0.00w      1 call
Form S/X    :       0.00u       0.00s       0.00w      1 call
Guess       :       0.00u       0.00s       0.00w      1 call
Form G      :       0.00u       0.02s       0.00w     13 calls
JK: D       :       0.00u       0.00s       0.00w     13 calls
JK: USO2AO  :       0.00u       0.00s       0.00w      8 calls
JK: JK      :       0.00u       0.02s       0.00w     13 calls
JK: J       :       0.00u       0.00s       0.00w      8 calls
JK: J1      :       0.00u       0.00s       0.00w      8 calls
JK: J2      :       0.00u       0.00s       0.00w      8 calls
JK: K       :       0.00u       0.02s       0.00w      8 calls
JK: K1      :       0.00u       0.00s       0.00w      8 calls
JK: K2      :       0.00u       0.00s       0.00w      8 calls
JK: AO2USO  :       0.00u       0.00s       0.00w      8 calls
Form F      :       0.00u       0.00s       0.00w     13 calls
DIIS        :       0.00u       0.00s       0.00w     13 calls
DIISManager::add_entry:       0.00u       0.00s       0.00w     13 calls
Form C      :       0.00u       0.00s       0.00w     13 calls
Form D      :       0.00u       0.00s       0.00w     13 calls
DIISManager::extrapolate:       0.00u       0.00s       0.00w     12 calls
DIISManager::extrapolate: bMatrix setup:       0.00u       0.00s       0.00w     12 calls
DIISManager::extrapolate: bMatrix pseudoinverse:       0.00u       0.00s       0.00w     12 calls
DIISManager::extrapolate: form new data:       0.00u       0.00s       0.00w     12 calls

***********************************************************

Host: Kevins-MacBook-Pro.local

Timers On : Mon Jan 12 11:17:21 2015
Timers Off: Mon Jan 12 11:17:21 2015

Wall Time:        0.00 seconds

JK: (A|mn)  :       0.00u       0.00s       0.00w      1 call
JK: (A|Q)^-1/2:       0.02u       0.00s       0.00w      1 call
JK: (Q|mn)  :       0.00u       0.00s       0.00w      1 call
Form H      :       0.00u       0.02s       0.00w      1 call
Form S/X    :       0.00u       0.00s       0.00w      1 call
Guess       :       0.00u       0.00s       0.00w      1 call
Form G      :       0.00u       0.00s       0.00w      4 calls
JK: D       :       0.00u       0.00s       0.00w      4 calls
JK: USO2AO  :       0.00u       0.00s       0.00w      2 calls
JK: JK      :       0.00u       0.00s       0.00w      4 calls
JK: J       :       0.00u       0.00s       0.00w      2 calls
JK: J1      :       0.00u       0.00s       0.00w      2 calls
JK: J2      :       0.00u       0.00s       0.00w      2 calls
JK: K       :       0.00u       0.00s       0.00w      2 calls
JK: K1      :       0.00u       0.00s       0.00w      2 calls
JK: K2      :       0.00u       0.00s       0.00w      2 calls
JK: AO2USO  :       0.00u       0.00s       0.00w      2 calls
Form F      :       0.00u       0.00s       0.00w      4 calls
DIIS        :       0.00u       0.00s       0.00w      4 calls
DIISManager::add_entry:       0.00u       0.00s       0.00w      4 calls
Form C      :       0.00u       0.00s       0.00w      4 calls
Form D      :       0.00u       0.00s       0.00w      4 calls
DIISManager::extrapolate:       0.00u       0.00s       0.00w      3 calls
DIISManager::extrapolate: bMatrix setup:       0.00u       0.00s       0.00w      3 calls
DIISManager::extrapolate: bMatrix pseudoinverse:       0.00u       0.00s       0.00w      3 calls
DIISManager::extrapolate: form new data:       0.00u       0.00s       0.00w      3 calls

***********************************************************

Host: Kevins-MacBook-Pro.local

Timers On : Mon Jan 12 11:38:49 2015
Timers Off: Mon Jan 12 11:38:50 2015

Wall Time:        1.00 seconds

JK: (A|mn)  :       0.02u       0.00s       0.00w      1 call
JK: (A|Q)^-1/2:       0.05u       0.00s       0.00w      1 call
JK: (Q|mn)  :       0.00u       0.00s       0.00w      1 call
Form H      :       0.00u       0.00s       0.00w      1 call
Form S/X    :       0.00u       0.00s       0.00w      1 call
Guess       :       0.00u       0.00s       0.00w      1 call
Form G      :       0.00u       0.00s       0.00w     15 calls
JK: D       :       0.00u       0.00s       0.00w     15 calls
JK: USO2AO  :       0.00u       0.00s       0.00w     10 calls
JK: JK      :       0.00u       0.00s       0.00w     15 calls
JK: J       :       0.00u       0.00s       0.00w     10 calls
JK: J1      :       0.00u       0.00s       0.00w     10 calls
JK: J2      :       0.00u       0.00s       0.00w     10 calls
JK: K       :       0.00u       0.00s       0.00w     10 calls
JK: K1      :       0.00u       0.00s       0.00w     10 calls
JK: K2      :       0.00u       0.00s       0.00w     10 calls
JK: AO2USO  :       0.00u       0.00s       0.00w     10 calls
Form F      :       0.00u       0.00s       0.00w     15 calls
DIIS        :       0.00u       0.00s       0.00w     15 calls
DIISManager::add_entry:       0.00u       0.00s       0.00w     15 calls
Form C      :       0.00u       0.00s       0.00w     15 calls
Form D      :       0.02u       0.00s       0.00w     15 calls
DIISManager::extrapolate:       0.00u       0.00s       0.00w     14 calls
DIISManager::extrapolate: bMatrix setup:       0.00u       0.00s       0.00w     14 calls
DIISManager::extrapolate: bMatrix pseudoinverse:       0.00u       0.00s       0.00w     14 calls
DIISManager::extrapolate: form new data:       0.00u       0.00s       0.00w     14 calls

***********************************************************

Host: Kevins-MacBook-Pro.local

Timers On : Wed Jan 21 15:43:54 2015
Timers Off: Wed Jan 21 15:43:55 2015

Wall Time:        1.00 seconds

JK: (A|mn)  :       0.02u       0.00s       0.00w      1 call
JK: (A|Q)^-1/2:       0.05u       0.00s       0.00w      1 call
JK: (Q|mn)  :       0.00u       0.00s       0.00w      1 call
Form H      :       0.00u       0.02s       0.00w      1 call
Form S/X    :       0.00u       0.00s       0.00w      1 call
Guess       :       0.00u       0.00s       0.00w      1 call
Form G      :       0.02u       0.00s       0.00w     15 calls
JK: D       :       0.00u       0.00s       0.00w     15 calls
JK: USO2AO  :       0.00u       0.00s       0.00w     10 calls
JK: JK      :       0.02u       0.00s       0.00w     15 calls
JK: J       :       0.00u       0.00s       0.00w     10 calls
JK: J1      :       0.00u       0.00s       0.00w     10 calls
JK: J2      :       0.00u       0.00s       0.00w     10 calls
JK: K       :       0.02u       0.00s       0.00w     10 calls
JK: K1      :       0.02u       0.00s       0.00w     10 calls
JK: K2      :       0.00u       0.00s       0.00w     10 calls
JK: AO2USO  :       0.00u       0.00s       0.00w     10 calls
Form F      :       0.00u       0.00s       0.00w     15 calls
DIIS        :       0.00u       0.00s       0.00w     15 calls
DIISManager::add_entry:       0.00u       0.00s       0.00w     15 calls
Form C      :       0.00u       0.00s       0.00w     15 calls
Form D      :       0.00u       0.00s       0.00w     15 calls
DIISManager::extrapolate:       0.00u       0.00s       0.00w     14 calls
DIISManager::extrapolate: bMatrix setup:       0.00u       0.00s       0.00w     14 calls
DIISManager::extrapolate: bMatrix pseudoinverse:       0.00u       0.00s       0.00w     14 calls
DIISManager::extrapolate: form new data:       0.00u       0.00s       0.00w     14 calls

***********************************************************

Host: Kevins-MacBook-Pro.local

Timers On : Wed Jan 21 15:44:31 2015
Timers Off: Wed Jan 21 15:44:31 2015

Wall Time:        0.00 seconds

JK: (A|mn)  :       0.00u       0.00s       0.00w      1 call
JK: (A|Q)^-1/2:       0.02u       0.00s       0.00w      1 call
JK: (Q|mn)  :       0.00u       0.00s       0.00w      1 call
Form H      :       0.00u       0.00s       0.00w      1 call
Form S/X    :       0.00u       0.00s       0.00w      1 call
Guess       :       0.00u       0.00s       0.00w      1 call
Form G      :       0.00u       0.00s       0.00w      4 calls
JK: D       :       0.00u       0.00s       0.00w      4 calls
JK: USO2AO  :       0.00u       0.00s       0.00w      2 calls
JK: JK      :       0.00u       0.00s       0.00w      4 calls
JK: J       :       0.00u       0.00s       0.00w      2 calls
JK: J1      :       0.00u       0.00s       0.00w      2 calls
JK: J2      :       0.00u       0.00s       0.00w      2 calls
JK: K       :       0.00u       0.00s       0.00w      2 calls
JK: K1      :       0.00u       0.00s       0.00w      2 calls
JK: K2      :       0.00u       0.00s       0.00w      2 calls
JK: AO2USO  :       0.00u       0.00s       0.00w      2 calls
Form F      :       0.00u       0.00s       0.00w      4 calls
DIIS        :       0.00u       0.00s       0.00w      4 calls
DIISManager::add_entry:       0.00u       0.00s       0.00w      4 calls
Form C      :       0.00u       0.00s       0.00w      4 calls
Form D      :       0.00u       0.00s       0.00w      4 calls
DIISManager::extrapolate:       0.00u       0.00s       0.00w      3 calls
DIISManager::extrapolate: bMatrix setup:       0.00u       0.00s       0.00w      3 calls
DIISManager::extrapolate: bMatrix pseudoinverse:       0.00u       0.00s       0.00w      3 calls
DIISManager::extrapolate: form new data:       0.00u       0.00s       0.00w      3 calls

***********************************************************

Host: Kevins-MacBook-Pro.local

Timers On : Wed Jan 21 15:44:53 2015
Timers Off: Wed Jan 21 15:44:54 2015

Wall Time:        1.00 seconds

JK: (A|mn)  :       0.00u       0.00s       0.00w      1 call
JK: (A|Q)^-1/2:       0.02u       0.00s       0.00w      1 call
JK: (Q|mn)  :       0.00u       0.00s       0.00w      1 call
Form H      :       0.00u       0.00s       0.00w      1 call
Form S/X    :       0.00u       0.00s       0.00w      1 call
Guess       :       0.00u       0.00s       0.00w      1 call
Form G      :       0.00u       0.00s       0.00w      7 calls
JK: D       :       0.00u       0.00s       0.00w      7 calls
JK: USO2AO  :       0.00u       0.00s       0.00w      4 calls
JK: JK      :       0.00u       0.00s       0.00w      7 calls
JK: J       :       0.00u       0.00s       0.00w      4 calls
JK: J1      :       0.00u       0.00s       0.00w      4 calls
JK: J2      :       0.00u       0.00s       0.00w      4 calls
JK: K       :       0.00u       0.00s       0.00w      4 calls
JK: K1      :       0.00u       0.00s       0.00w      4 calls
JK: K2      :       0.00u       0.00s       0.00w      4 calls
JK: AO2USO  :       0.00u       0.00s       0.00w      4 calls
Form F      :       0.00u       0.00s       0.00w      7 calls
DIIS        :       0.00u       0.00s       0.00w      7 calls
DIISManager::add_entry:       0.00u       0.00s       0.00w      7 calls
Form C      :       0.00u       0.00s       0.00w      7 calls
Form D      :       0.00u       0.00s       0.00w      7 calls
DIISManager::extrapolate:       0.00u       0.00s       0.00w      6 calls
DIISManager::extrapolate: bMatrix setup:       0.00u       0.00s       0.00w      6 calls
DIISManager::extrapolate: bMatrix pseudoinverse:       0.00u       0.00s       0.00w      6 calls
DIISManager::extrapolate: form new data:       0.00u       0.00s       0.00w      6 calls

***********************************************************

Host: Kevins-MacBook-Pro.local

Timers On : Wed Jan 21 15:45:25 2015
Timers Off: Wed Jan 21 15:45:26 2015

Wall Time:        1.00 seconds

JK: (A|mn)  :       0.00u       0.00s       0.00w      1 call
JK: (A|Q)^-1/2:       0.03u       0.00s       0.00w      1 call
JK: (Q|mn)  :       0.00u       0.00s       0.00w      1 call
Form H      :       0.00u       0.00s       0.00w      1 call
Form S/X    :       0.00u       0.00s       0.00w      1 call
Guess       :       0.00u       0.00s       0.00w      1 call
Form G      :       0.00u       0.00s       0.00w     17 calls
JK: D       :       0.00u       0.00s       0.00w     17 calls
JK: USO2AO  :       0.00u       0.00s       0.00w     12 calls
JK: JK      :       0.00u       0.00s       0.00w     17 calls
JK: J       :       0.00u       0.00s       0.00w     12 calls
JK: J1      :       0.00u       0.00s       0.00w     12 calls
JK: J2      :       0.00u       0.00s       0.00w     12 calls
JK: K       :       0.00u       0.00s       0.00w     12 calls
JK: K1      :       0.00u       0.00s       0.00w     12 calls
JK: K2      :       0.00u       0.00s       0.00w     12 calls
JK: AO2USO  :       0.00u       0.00s       0.00w     12 calls
Form F      :       0.00u       0.00s       0.00w     17 calls
DIIS        :       0.02u       0.00s       0.00w     17 calls
DIISManager::add_entry:       0.00u       0.00s       0.00w     17 calls
Form C      :       0.00u       0.00s       0.00w     17 calls
Form D      :       0.00u       0.00s       0.00w     17 calls
DIISManager::extrapolate:       0.02u       0.00s       0.00w     16 calls
DIISManager::extrapolate: bMatrix setup:       0.00u       0.00s       0.00w     16 calls
DIISManager::extrapolate: bMatrix pseudoinverse:       0.02u       0.00s       0.00w     16 calls
DIISManager::extrapolate: form new data:       0.00u       0.00s       0.00w     16 calls

***********************************************************

Host: Kevins-MacBook-Pro.local

Timers On : Wed Jan 21 15:45:44 2015
Timers Off: Wed Jan 21 15:45:45 2015

Wall Time:        1.00 seconds

JK: (A|mn)  :       0.00u       0.00s       0.00w      1 call
JK: (A|Q)^-1/2:       0.02u       0.00s       0.00w      1 call
JK: (Q|mn)  :       0.00u       0.00s       0.00w      1 call
Form H      :       0.00u       0.00s       0.00w      1 call
Form S/X    :       0.00u       0.00s       0.00w      1 call
Guess       :       0.00u       0.00s       0.00w      1 call
Form G      :       0.00u       0.00s       0.00w     13 calls
JK: D       :       0.00u       0.00s       0.00w     13 calls
JK: USO2AO  :       0.00u       0.00s       0.00w      8 calls
JK: JK      :       0.00u       0.00s       0.00w     13 calls
JK: J       :       0.00u       0.00s       0.00w      8 calls
JK: J1      :       0.00u       0.00s       0.00w      8 calls
JK: J2      :       0.00u       0.00s       0.00w      8 calls
JK: K       :       0.00u       0.00s       0.00w      8 calls
JK: K1      :       0.00u       0.00s       0.00w      8 calls
JK: K2      :       0.00u       0.00s       0.00w      8 calls
JK: AO2USO  :       0.00u       0.00s       0.00w      8 calls
Form F      :       0.00u       0.00s       0.00w     13 calls
DIIS        :       0.00u       0.00s       0.00w     13 calls
DIISManager::add_entry:       0.00u       0.00s       0.00w     13 calls
Form C      :       0.00u       0.00s       0.00w     13 calls
Form D      :       0.00u       0.00s       0.00w     13 calls
DIISManager::extrapolate:       0.00u       0.00s       0.00w     12 calls
DIISManager::extrapolate: bMatrix setup:       0.00u       0.00s       0.00w     12 calls
DIISManager::extrapolate: bMatrix pseudoinverse:       0.00u       0.00s       0.00w     12 calls
DIISManager::extrapolate: form new data:       0.00u       0.00s       0.00w     12 calls

***********************************************************

Host: Kevins-MacBook-Pro.local

Timers On : Wed Jan 21 15:49:25 2015
Timers Off: Wed Jan 21 15:49:26 2015

Wall Time:        1.00 seconds

JK: (A|mn)  :       0.00u       0.00s       0.00w      1 call
JK: (A|Q)^-1/2:       0.02u       0.00s       0.00w      1 call
JK: (Q|mn)  :       0.00u       0.00s       0.00w      1 call
Form H      :       0.00u       0.00s       0.00w      1 call
Form S/X    :       0.00u       0.00s       0.00w      1 call
Guess       :       0.00u       0.00s       0.00w      1 call
Form G      :       0.02u       0.00s       0.00w     13 calls
JK: D       :       0.00u       0.00s       0.00w     13 calls
JK: USO2AO  :       0.00u       0.00s       0.00w      8 calls
JK: JK      :       0.00u       0.00s       0.00w     13 calls
JK: J       :       0.00u       0.00s       0.00w      8 calls
JK: J1      :       0.00u       0.00s       0.00w      8 calls
JK: J2      :       0.00u       0.00s       0.00w      8 calls
JK: K       :       0.00u       0.00s       0.00w      8 calls
JK: K1      :       0.00u       0.00s       0.00w      8 calls
JK: K2      :       0.00u       0.00s       0.00w      8 calls
JK: AO2USO  :       0.00u       0.00s       0.00w      8 calls
Form F      :       0.00u       0.00s       0.00w     13 calls
DIIS        :       0.00u       0.00s       0.00w     13 calls
DIISManager::add_entry:       0.00u       0.00s       0.00w     13 calls
Form C      :       0.00u       0.00s       0.00w     13 calls
Form D      :       0.00u       0.00s       0.00w     13 calls
DIISManager::extrapolate:       0.00u       0.00s       0.00w     12 calls
DIISManager::extrapolate: bMatrix setup:       0.00u       0.00s       0.00w     12 calls
DIISManager::extrapolate: bMatrix pseudoinverse:       0.00u       0.00s       0.00w     12 calls
DIISManager::extrapolate: form new data:       0.00u       0.00s       0.00w     12 calls

***********************************************************

Host: Kevins-MacBook-Pro.local

Timers On : Wed Jan 21 15:54:23 2015
Timers Off: Wed Jan 21 15:54:23 2015

Wall Time:        0.00 seconds

JK: (A|mn)  :       0.00u       0.00s       0.00w      1 call
JK: (A|Q)^-1/2:       0.03u       0.00s       0.00w      1 call
JK: (Q|mn)  :       0.00u       0.00s       0.00w      1 call
Form H      :       0.00u       0.00s       0.00w      1 call
Form S/X    :       0.00u       0.00s       0.00w      1 call
Guess       :       0.00u       0.00s       0.00w      1 call
Form G      :       0.00u       0.00s       0.00w     13 calls
JK: D       :       0.00u       0.00s       0.00w     13 calls
JK: USO2AO  :       0.00u       0.00s       0.00w      8 calls
JK: JK      :       0.00u       0.00s       0.00w     13 calls
JK: J       :       0.00u       0.00s       0.00w      8 calls
JK: J1      :       0.00u       0.00s       0.00w      8 calls
JK: J2      :       0.00u       0.00s       0.00w      8 calls
JK: K       :       0.00u       0.00s       0.00w      8 calls
JK: K1      :       0.00u       0.00s       0.00w      8 calls
JK: K2      :       0.00u       0.00s       0.00w      8 calls
JK: AO2USO  :       0.00u       0.00s       0.00w      8 calls
Form F      :       0.00u       0.00s       0.00w     13 calls
DIIS        :       0.00u       0.00s       0.00w     13 calls
DIISManager::add_entry:       0.00u       0.00s       0.00w     13 calls
Form C      :       0.00u       0.00s       0.00w     13 calls
Form D      :       0.00u       0.00s       0.00w     13 calls
DIISManager::extrapolate:       0.00u       0.00s       0.00w     12 calls
DIISManager::extrapolate: bMatrix setup:       0.00u       0.00s       0.00w     12 calls
DIISManager::extrapolate: bMatrix pseudoinverse:       0.00u       0.00s       0.00w     12 calls
DIISManager::extrapolate: form new data:       0.00u       0.00s       0.00w     12 calls

***********************************************************

Host: Kevins-MacBook-Pro.local

Timers On : Wed Jan 21 16:32:37 2015
Timers Off: Wed Jan 21 16:32:37 2015

Wall Time:        0.00 seconds

JK: (A|mn)  :       0.00u       0.00s       0.00w      1 call
JK: (A|Q)^-1/2:       0.03u       0.00s       0.00w      1 call
JK: (Q|mn)  :       0.00u       0.00s       0.00w      1 call
Form H      :       0.00u       0.00s       0.00w      1 call
Form S/X    :       0.00u       0.00s       0.00w      1 call
Guess       :       0.00u       0.00s       0.00w      1 call
Form G      :       0.00u       0.00s       0.00w     13 calls
JK: D       :       0.00u       0.00s       0.00w     13 calls
JK: USO2AO  :       0.00u       0.00s       0.00w      8 calls
JK: JK      :       0.00u       0.00s       0.00w     13 calls
JK: J       :       0.00u       0.00s       0.00w      8 calls
JK: J1      :       0.00u       0.00s       0.00w      8 calls
JK: J2      :       0.00u       0.00s       0.00w      8 calls
JK: K       :       0.00u       0.00s       0.00w      8 calls
JK: K1      :       0.00u       0.00s       0.00w      8 calls
JK: K2      :       0.00u       0.00s       0.00w      8 calls
JK: AO2USO  :       0.00u       0.00s       0.00w      8 calls
Form F      :       0.00u       0.00s       0.00w     13 calls
DIIS        :       0.00u       0.00s       0.00w     13 calls
DIISManager::add_entry:       0.00u       0.00s       0.00w     13 calls
Form C      :       0.00u       0.00s       0.00w     13 calls
Form D      :       0.00u       0.00s       0.00w     13 calls
DIISManager::extrapolate:       0.00u       0.00s       0.00w     12 calls
DIISManager::extrapolate: bMatrix setup:       0.00u       0.00s       0.00w     12 calls
DIISManager::extrapolate: bMatrix pseudoinverse:       0.00u       0.00s       0.00w     12 calls
DIISManager::extrapolate: form new data:       0.00u       0.00s       0.00w     12 calls

***********************************************************

Host: Kevins-MacBook-Pro.local

Timers On : Wed Jan 21 16:44:20 2015
Timers Off: Wed Jan 21 16:44:21 2015

Wall Time:        1.00 seconds

JK: (A|mn)  :       0.00u       0.00s       0.00w      1 call
JK: (A|Q)^-1/2:       0.03u       0.00s       0.00w      1 call
JK: (Q|mn)  :       0.00u       0.00s       0.00w      1 call
Form H      :       0.00u       0.00s       0.00w      1 call
Form S/X    :       0.00u       0.00s       0.00w      1 call
Guess       :       0.00u       0.00s       0.00w      1 call
Form G      :       0.00u       0.00s       0.00w     13 calls
JK: D       :       0.00u       0.00s       0.00w     13 calls
JK: USO2AO  :       0.00u       0.00s       0.00w      8 calls
JK: JK      :       0.00u       0.00s       0.00w     13 calls
JK: J       :       0.00u       0.00s       0.00w      8 calls
JK: J1      :       0.00u       0.00s       0.00w      8 calls
JK: J2      :       0.00u       0.00s       0.00w      8 calls
JK: K       :       0.00u       0.00s       0.00w      8 calls
JK: K1      :       0.00u       0.00s       0.00w      8 calls
JK: K2      :       0.00u       0.00s       0.00w      8 calls
JK: AO2USO  :       0.00u       0.00s       0.00w      8 calls
Form F      :       0.00u       0.00s       0.00w     13 calls
DIIS        :       0.00u       0.00s       0.00w     13 calls
DIISManager::add_entry:       0.00u       0.00s       0.00w     13 calls
Form C      :       0.00u       0.00s       0.00w     13 calls
Form D      :       0.00u       0.00s       0.00w     13 calls
DIISManager::extrapolate:       0.00u       0.00s       0.00w     12 calls
DIISManager::extrapolate: bMatrix setup:       0.00u       0.00s       0.00w     12 calls
DIISManager::extrapolate: bMatrix pseudoinverse:       0.00u       0.00s       0.00w     12 calls
DIISManager::extrapolate: form new data:       0.00u       0.00s       0.00w     12 calls

***********************************************************

Host: Kevins-MacBook-Pro.local

Timers On : Wed Jan 21 16:46:00 2015
Timers Off: Wed Jan 21 16:46:00 2015

Wall Time:        0.00 seconds

JK: (A|mn)  :       0.00u       0.00s       0.00w      1 call
JK: (A|Q)^-1/2:       0.02u       0.00s       0.00w      1 call
JK: (Q|mn)  :       0.00u       0.00s       0.00w      1 call
Form H      :       0.00u       0.00s       0.00w      1 call
Form S/X    :       0.00u       0.00s       0.00w      1 call
Guess       :       0.00u       0.00s       0.00w      1 call
Form G      :       0.00u       0.00s       0.00w     13 calls
JK: D       :       0.00u       0.00s       0.00w     13 calls
JK: USO2AO  :       0.00u       0.00s       0.00w      8 calls
JK: JK      :       0.00u       0.00s       0.00w     13 calls
JK: J       :       0.00u       0.00s       0.00w      8 calls
JK: J1      :       0.00u       0.00s       0.00w      8 calls
JK: J2      :       0.00u       0.00s       0.00w      8 calls
JK: K       :       0.00u       0.00s       0.00w      8 calls
JK: K1      :       0.00u       0.00s       0.00w      8 calls
JK: K2      :       0.00u       0.00s       0.00w      8 calls
JK: AO2USO  :       0.00u       0.00s       0.00w      8 calls
Form F      :       0.00u       0.00s       0.00w     13 calls
DIIS        :       0.00u       0.00s       0.00w     13 calls
DIISManager::add_entry:       0.00u       0.00s       0.00w     13 calls
Form C      :       0.00u       0.00s       0.00w     13 calls
Form D      :       0.00u       0.00s       0.00w     13 calls
DIISManager::extrapolate:       0.00u       0.00s       0.00w     12 calls
DIISManager::extrapolate: bMatrix setup:       0.00u       0.00s       0.00w     12 calls
DIISManager::extrapolate: bMatrix pseudoinverse:       0.00u       0.00s       0.00w     12 calls
DIISManager::extrapolate: form new data:       0.00u       0.00s       0.00w     12 calls

***********************************************************

Host: Kevins-MacBook-Pro.local

Timers On : Wed Jan 21 17:02:12 2015
Timers Off: Wed Jan 21 17:02:12 2015

Wall Time:        0.00 seconds

JK: (A|mn)  :       0.00u       0.00s       0.00w      1 call
JK: (A|Q)^-1/2:       0.03u       0.00s       0.00w      1 call
JK: (Q|mn)  :       0.00u       0.00s       0.00w      1 call
Form H      :       0.00u       0.00s       0.00w      1 call
Form S/X    :       0.00u       0.00s       0.00w      1 call
Guess       :       0.00u       0.00s       0.00w      1 call
Form G      :       0.00u       0.00s       0.00w     13 calls
JK: D       :       0.00u       0.00s       0.00w     13 calls
JK: USO2AO  :       0.00u       0.00s       0.00w      8 calls
JK: JK      :       0.00u       0.00s       0.00w     13 calls
JK: J       :       0.00u       0.00s       0.00w      8 calls
JK: J1      :       0.00u       0.00s       0.00w      8 calls
JK: J2      :       0.00u       0.00s       0.00w      8 calls
JK: K       :       0.00u       0.00s       0.00w      8 calls
JK: K1      :       0.00u       0.00s       0.00w      8 calls
JK: K2      :       0.00u       0.00s       0.00w      8 calls
JK: AO2USO  :       0.00u       0.00s       0.00w      8 calls
Form F      :       0.00u       0.00s       0.00w     13 calls
DIIS        :       0.02u       0.00s       0.00w     13 calls
DIISManager::add_entry:       0.00u       0.00s       0.00w     13 calls
Form C      :       0.00u       0.00s       0.00w     13 calls
Form D      :       0.00u       0.00s       0.00w     13 calls
DIISManager::extrapolate:       0.02u       0.00s       0.00w     12 calls
DIISManager::extrapolate: bMatrix setup:       0.00u       0.00s       0.00w     12 calls
DIISManager::extrapolate: bMatrix pseudoinverse:       0.00u       0.00s       0.00w     12 calls
DIISManager::extrapolate: form new data:       0.02u       0.00s       0.00w     12 calls

***********************************************************

Host: Kevins-MacBook-Pro.local

Timers On : Wed Jan 21 17:02:40 2015
Timers Off: Wed Jan 21 17:02:40 2015

Wall Time:        0.00 seconds

JK: (A|mn)  :       0.00u       0.00s       0.00w      1 call
JK: (A|Q)^-1/2:       0.03u       0.00s       0.00w      1 call
JK: (Q|mn)  :       0.00u       0.00s       0.00w      1 call
Form H      :       0.00u       0.00s       0.00w      1 call
Form S/X    :       0.00u       0.00s       0.00w      1 call
Guess       :       0.00u       0.00s       0.00w      1 call
Form G      :       0.02u       0.02s       0.00w     13 calls
JK: D       :       0.00u       0.00s       0.00w     13 calls
JK: USO2AO  :       0.00u       0.00s       0.00w      8 calls
JK: JK      :       0.02u       0.02s       0.00w     13 calls
JK: J       :       0.00u       0.00s       0.00w      8 calls
JK: J1      :       0.00u       0.00s       0.00w      8 calls
JK: J2      :       0.00u       0.00s       0.00w      8 calls
JK: K       :       0.00u       0.00s       0.00w      8 calls
JK: K1      :       0.00u       0.00s       0.00w      8 calls
JK: K2      :       0.00u       0.00s       0.00w      8 calls
JK: AO2USO  :       0.00u       0.00s       0.00w      8 calls
Form F      :       0.00u       0.00s       0.00w     13 calls
DIIS        :       0.00u       0.00s       0.00w     13 calls
DIISManager::add_entry:       0.00u       0.00s       0.00w     13 calls
Form C      :       0.00u       0.00s       0.00w     13 calls
Form D      :       0.00u       0.00s       0.00w     13 calls
DIISManager::extrapolate:       0.00u       0.00s       0.00w     12 calls
DIISManager::extrapolate: bMatrix setup:       0.00u       0.00s       0.00w     12 calls
DIISManager::extrapolate: bMatrix pseudoinverse:       0.00u       0.00s       0.00w     12 calls
DIISManager::extrapolate: form new data:       0.00u       0.00s       0.00w     12 calls

***********************************************************

Host: Kevins-MacBook-Pro.local

Timers On : Thu Jan 22 14:43:56 2015
Timers Off: Thu Jan 22 14:43:56 2015

Wall Time:        0.00 seconds

JK: (A|mn)  :       0.00u       0.00s       0.00w      1 call
JK: (A|Q)^-1/2:       0.03u       0.00s       0.00w      1 call
JK: (Q|mn)  :       0.00u       0.00s       0.00w      1 call
Form H      :       0.00u       0.00s       0.00w      1 call
Form S/X    :       0.00u       0.00s       0.00w      1 call
Guess       :       0.00u       0.00s       0.00w      1 call
Form G      :       0.00u       0.00s       0.00w     13 calls
JK: D       :       0.00u       0.00s       0.00w     13 calls
JK: USO2AO  :       0.00u       0.00s       0.00w      8 calls
JK: JK      :       0.00u       0.00s       0.00w     13 calls
JK: J       :       0.00u       0.00s       0.00w      8 calls
JK: J1      :       0.00u       0.00s       0.00w      8 calls
JK: J2      :       0.00u       0.00s       0.00w      8 calls
JK: K       :       0.00u       0.00s       0.00w      8 calls
JK: K1      :       0.00u       0.00s       0.00w      8 calls
JK: K2      :       0.00u       0.00s       0.00w      8 calls
JK: AO2USO  :       0.00u       0.00s       0.00w      8 calls
Form F      :       0.00u       0.00s       0.00w     13 calls
DIIS        :       0.00u       0.00s       0.00w     13 calls
DIISManager::add_entry:       0.00u       0.00s       0.00w     13 calls
Form C      :       0.00u       0.00s       0.00w     13 calls
Form D      :       0.00u       0.00s       0.00w     13 calls
DIISManager::extrapolate:       0.00u       0.00s       0.00w     12 calls
DIISManager::extrapolate: bMatrix setup:       0.00u       0.00s       0.00w     12 calls
DIISManager::extrapolate: bMatrix pseudoinverse:       0.00u       0.00s       0.00w     12 calls
DIISManager::extrapolate: form new data:       0.00u       0.00s       0.00w     12 calls

***********************************************************

Host: Kevins-MacBook-Pro.local

Timers On : Thu Jan 22 14:44:31 2015
Timers Off: Thu Jan 22 14:44:31 2015

Wall Time:        0.00 seconds

JK: (A|mn)  :       0.00u       0.00s       0.00w      1 call
JK: (A|Q)^-1/2:       0.02u       0.00s       0.00w      1 call
JK: (Q|mn)  :       0.00u       0.00s       0.00w      1 call
Form H      :       0.00u       0.00s       0.00w      1 call
Form S/X    :       0.00u       0.00s       0.00w      1 call
Guess       :       0.00u       0.00s       0.00w      1 call
Form G      :       0.00u       0.00s       0.00w     13 calls
JK: D       :       0.00u       0.00s       0.00w     13 calls
JK: USO2AO  :       0.00u       0.00s       0.00w      8 calls
JK: JK      :       0.00u       0.00s       0.00w     13 calls
JK: J       :       0.00u       0.00s       0.00w      8 calls
JK: J1      :       0.00u       0.00s       0.00w      8 calls
JK: J2      :       0.00u       0.00s       0.00w      8 calls
JK: K       :       0.00u       0.00s       0.00w      8 calls
JK: K1      :       0.00u       0.00s       0.00w      8 calls
JK: K2      :       0.00u       0.00s       0.00w      8 calls
JK: AO2USO  :       0.00u       0.00s       0.00w      8 calls
Form F      :       0.00u       0.00s       0.00w     13 calls
DIIS        :       0.00u       0.00s       0.00w     13 calls
DIISManager::add_entry:       0.00u       0.00s       0.00w     13 calls
Form C      :       0.00u       0.00s       0.00w     13 calls
Form D      :       0.00u       0.00s       0.00w     13 calls
DIISManager::extrapolate:       0.00u       0.00s       0.00w     12 calls
DIISManager::extrapolate: bMatrix setup:       0.00u       0.00s       0.00w     12 calls
DIISManager::extrapolate: bMatrix pseudoinverse:       0.00u       0.00s       0.00w     12 calls
DIISManager::extrapolate: form new data:       0.00u       0.00s       0.00w     12 calls

***********************************************************

Host: Kevins-MacBook-Pro.local

Timers On : Thu Jan 22 14:44:46 2015
Timers Off: Thu Jan 22 14:44:47 2015

Wall Time:        1.00 seconds

JK: (A|mn)  :       0.00u       0.00s       0.00w      1 call
JK: (A|Q)^-1/2:       0.02u       0.00s       0.00w      1 call
JK: (Q|mn)  :       0.00u       0.00s       0.00w      1 call
Form H      :       0.00u       0.00s       0.00w      1 call
Form S/X    :       0.00u       0.00s       0.00w      1 call
Guess       :       0.00u       0.00s       0.00w      1 call
Form G      :       0.00u       0.00s       0.00w      4 calls
JK: D       :       0.00u       0.00s       0.00w      4 calls
JK: USO2AO  :       0.00u       0.00s       0.00w      2 calls
JK: JK      :       0.00u       0.00s       0.00w      4 calls
JK: J       :       0.00u       0.00s       0.00w      2 calls
JK: J1      :       0.00u       0.00s       0.00w      2 calls
JK: J2      :       0.00u       0.00s       0.00w      2 calls
JK: K       :       0.00u       0.00s       0.00w      2 calls
JK: K1      :       0.00u       0.00s       0.00w      2 calls
JK: K2      :       0.00u       0.00s       0.00w      2 calls
JK: AO2USO  :       0.00u       0.00s       0.00w      2 calls
Form F      :       0.00u       0.00s       0.00w      4 calls
DIIS        :       0.00u       0.00s       0.00w      4 calls
DIISManager::add_entry:       0.00u       0.00s       0.00w      4 calls
Form C      :       0.00u       0.00s       0.00w      4 calls
Form D      :       0.00u       0.00s       0.00w      4 calls
DIISManager::extrapolate:       0.00u       0.00s       0.00w      3 calls
DIISManager::extrapolate: bMatrix setup:       0.00u       0.00s       0.00w      3 calls
DIISManager::extrapolate: bMatrix pseudoinverse:       0.00u       0.00s       0.00w      3 calls
DIISManager::extrapolate: form new data:       0.00u       0.00s       0.00w      3 calls

***********************************************************

Host: Kevins-MacBook-Pro.local

Timers On : Thu Jan 22 14:48:32 2015
Timers Off: Thu Jan 22 14:48:33 2015

Wall Time:        1.00 seconds

JK: (A|mn)  :       0.00u       0.00s       0.00w      1 call
JK: (A|Q)^-1/2:       0.02u       0.00s       0.00w      1 call
JK: (Q|mn)  :       0.00u       0.00s       0.00w      1 call
Form H      :       0.00u       0.00s       0.00w      1 call
Form S/X    :       0.00u       0.00s       0.00w      1 call
Guess       :       0.00u       0.00s       0.00w      1 call
Form G      :       0.00u       0.00s       0.00w      4 calls
JK: D       :       0.00u       0.00s       0.00w      4 calls
JK: USO2AO  :       0.00u       0.00s       0.00w      2 calls
JK: JK      :       0.00u       0.00s       0.00w      4 calls
JK: J       :       0.00u       0.00s       0.00w      2 calls
JK: J1      :       0.00u       0.00s       0.00w      2 calls
JK: J2      :       0.00u       0.00s       0.00w      2 calls
JK: K       :       0.00u       0.00s       0.00w      2 calls
JK: K1      :       0.00u       0.00s       0.00w      2 calls
JK: K2      :       0.00u       0.00s       0.00w      2 calls
JK: AO2USO  :       0.00u       0.00s       0.00w      2 calls
Form F      :       0.00u       0.00s       0.00w      4 calls
DIIS        :       0.00u       0.00s       0.00w      4 calls
DIISManager::add_entry:       0.00u       0.00s       0.00w      4 calls
Form C      :       0.00u       0.00s       0.00w      4 calls
Form D      :       0.00u       0.00s       0.00w      4 calls
DIISManager::extrapolate:       0.00u       0.00s       0.00w      3 calls
DIISManager::extrapolate: bMatrix setup:       0.00u       0.00s       0.00w      3 calls
DIISManager::extrapolate: bMatrix pseudoinverse:       0.00u       0.00s       0.00w      3 calls
DIISManager::extrapolate: form new data:       0.00u       0.00s       0.00w      3 calls

***********************************************************

Host: Kevins-MacBook-Pro.local

Timers On : Fri Jan 23 14:52:54 2015
Timers Off: Fri Jan 23 14:52:55 2015

Wall Time:        1.00 seconds

JK: (A|mn)  :       0.00u       0.00s       0.00w      1 call
JK: (A|Q)^-1/2:       0.02u       0.00s       0.00w      1 call
JK: (Q|mn)  :       0.00u       0.00s       0.00w      1 call
Form H      :       0.00u       0.00s       0.00w      1 call
Form S/X    :       0.00u       0.00s       0.00w      1 call
Guess       :       0.00u       0.00s       0.00w      1 call
Form G      :       0.00u       0.00s       0.00w      7 calls
JK: D       :       0.00u       0.00s       0.00w      7 calls
JK: USO2AO  :       0.00u       0.00s       0.00w      4 calls
JK: JK      :       0.00u       0.00s       0.00w      7 calls
JK: J       :       0.00u       0.00s       0.00w      4 calls
JK: J1      :       0.00u       0.00s       0.00w      4 calls
JK: J2      :       0.00u       0.00s       0.00w      4 calls
JK: K       :       0.00u       0.00s       0.00w      4 calls
JK: K1      :       0.00u       0.00s       0.00w      4 calls
JK: K2      :       0.00u       0.00s       0.00w      4 calls
JK: AO2USO  :       0.00u       0.00s       0.00w      4 calls
Form F      :       0.00u       0.00s       0.00w      7 calls
DIIS        :       0.00u       0.00s       0.00w      7 calls
DIISManager::add_entry:       0.00u       0.00s       0.00w      7 calls
Form C      :       0.00u       0.00s       0.00w      7 calls
Form D      :       0.00u       0.00s       0.00w      7 calls
DIISManager::extrapolate:       0.00u       0.00s       0.00w      6 calls
DIISManager::extrapolate: bMatrix setup:       0.00u       0.00s       0.00w      6 calls
DIISManager::extrapolate: bMatrix pseudoinverse:       0.00u       0.00s       0.00w      6 calls
DIISManager::extrapolate: form new data:       0.00u       0.00s       0.00w      6 calls

***********************************************************

Host: Kevins-MacBook-Pro.local

Timers On : Fri Jan 23 14:53:38 2015
Timers Off: Fri Jan 23 14:53:38 2015

Wall Time:        0.00 seconds

JK: (A|mn)  :       0.00u       0.00s       0.00w      1 call
JK: (A|Q)^-1/2:       0.02u       0.00s       0.00w      1 call
JK: (Q|mn)  :       0.00u       0.00s       0.00w      1 call
Form H      :       0.00u       0.00s       0.00w      1 call
Form S/X    :       0.00u       0.00s       0.00w      1 call
Guess       :       0.00u       0.00s       0.00w      1 call
Form G      :       0.00u       0.00s       0.00w      7 calls
JK: D       :       0.00u       0.00s       0.00w      7 calls
JK: USO2AO  :       0.00u       0.00s       0.00w      4 calls
JK: JK      :       0.00u       0.00s       0.00w      7 calls
JK: J       :       0.00u       0.00s       0.00w      4 calls
JK: J1      :       0.00u       0.00s       0.00w      4 calls
JK: J2      :       0.00u       0.00s       0.00w      4 calls
JK: K       :       0.00u       0.00s       0.00w      4 calls
JK: K1      :       0.00u       0.00s       0.00w      4 calls
JK: K2      :       0.00u       0.00s       0.00w      4 calls
JK: AO2USO  :       0.00u       0.00s       0.00w      4 calls
Form F      :       0.00u       0.00s       0.00w      7 calls
DIIS        :       0.00u       0.00s       0.00w      7 calls
DIISManager::add_entry:       0.00u       0.00s       0.00w      7 calls
Form C      :       0.00u       0.00s       0.00w      7 calls
Form D      :       0.00u       0.00s       0.00w      7 calls
DIISManager::extrapolate:       0.00u       0.00s       0.00w      6 calls
DIISManager::extrapolate: bMatrix setup:       0.00u       0.00s       0.00w      6 calls
DIISManager::extrapolate: bMatrix pseudoinverse:       0.00u       0.00s       0.00w      6 calls
DIISManager::extrapolate: form new data:       0.00u       0.00s       0.00w      6 calls

***********************************************************

Host: Kevins-MacBook-Pro.local

Timers On : Fri Jan 23 14:54:42 2015
Timers Off: Fri Jan 23 14:54:43 2015

Wall Time:        1.00 seconds

JK: (A|mn)  :       0.00u       0.00s       0.00w      1 call
JK: (A|Q)^-1/2:       0.02u       0.00s       0.00w      1 call
JK: (Q|mn)  :       0.00u       0.00s       0.00w      1 call
Form H      :       0.00u       0.00s       0.00w      1 call
Form S/X    :       0.00u       0.00s       0.00w      1 call
Guess       :       0.00u       0.00s       0.00w      1 call
Form G      :       0.00u       0.00s       0.00w      7 calls
JK: D       :       0.00u       0.00s       0.00w      7 calls
JK: USO2AO  :       0.00u       0.00s       0.00w      4 calls
JK: JK      :       0.00u       0.00s       0.00w      7 calls
JK: J       :       0.00u       0.00s       0.00w      4 calls
JK: J1      :       0.00u       0.00s       0.00w      4 calls
JK: J2      :       0.00u       0.00s       0.00w      4 calls
JK: K       :       0.00u       0.00s       0.00w      4 calls
JK: K1      :       0.00u       0.00s       0.00w      4 calls
JK: K2      :       0.00u       0.00s       0.00w      4 calls
JK: AO2USO  :       0.00u       0.00s       0.00w      4 calls
Form F      :       0.00u       0.00s       0.00w      7 calls
DIIS        :       0.00u       0.00s       0.00w      7 calls
DIISManager::add_entry:       0.00u       0.00s       0.00w      7 calls
Form C      :       0.00u       0.00s       0.00w      7 calls
Form D      :       0.00u       0.00s       0.00w      7 calls
DIISManager::extrapolate:       0.00u       0.00s       0.00w      6 calls
DIISManager::extrapolate: bMatrix setup:       0.00u       0.00s       0.00w      6 calls
DIISManager::extrapolate: bMatrix pseudoinverse:       0.00u       0.00s       0.00w      6 calls
DIISManager::extrapolate: form new data:       0.00u       0.00s       0.00w      6 calls

***********************************************************

Host: Kevins-MacBook-Pro.local

Timers On : Fri Jan 23 14:57:37 2015
Timers Off: Fri Jan 23 14:57:38 2015

Wall Time:        1.00 seconds

JK: (A|mn)  :       0.00u       0.00s       0.00w      1 call
JK: (A|Q)^-1/2:       0.02u       0.00s       0.00w      1 call
JK: (Q|mn)  :       0.00u       0.00s       0.00w      1 call
Form H      :       0.00u       0.00s       0.00w      1 call
Form S/X    :       0.00u       0.00s       0.00w      1 call
Guess       :       0.00u       0.00s       0.00w      1 call
Form G      :       0.00u       0.00s       0.00w      7 calls
JK: D       :       0.00u       0.00s       0.00w      7 calls
JK: USO2AO  :       0.00u       0.00s       0.00w      4 calls
JK: JK      :       0.00u       0.00s       0.00w      7 calls
JK: J       :       0.00u       0.00s       0.00w      4 calls
JK: J1      :       0.00u       0.00s       0.00w      4 calls
JK: J2      :       0.00u       0.00s       0.00w      4 calls
JK: K       :       0.00u       0.00s       0.00w      4 calls
JK: K1      :       0.00u       0.00s       0.00w      4 calls
JK: K2      :       0.00u       0.00s       0.00w      4 calls
JK: AO2USO  :       0.00u       0.00s       0.00w      4 calls
Form F      :       0.00u       0.00s       0.00w      7 calls
DIIS        :       0.00u       0.00s       0.00w      7 calls
DIISManager::add_entry:       0.00u       0.00s       0.00w      7 calls
Form C      :       0.00u       0.00s       0.00w      7 calls
Form D      :       0.00u       0.00s       0.00w      7 calls
DIISManager::extrapolate:       0.00u       0.00s       0.00w      6 calls
DIISManager::extrapolate: bMatrix setup:       0.00u       0.00s       0.00w      6 calls
DIISManager::extrapolate: bMatrix pseudoinverse:       0.00u       0.00s       0.00w      6 calls
DIISManager::extrapolate: form new data:       0.00u       0.00s       0.00w      6 calls

***********************************************************

Host: Kevins-MacBook-Pro.local

Timers On : Fri Jan 23 15:01:02 2015
Timers Off: Fri Jan 23 15:01:03 2015

Wall Time:        1.00 seconds

JK: (A|mn)  :       0.00u       0.00s       0.00w      1 call
JK: (A|Q)^-1/2:       0.02u       0.00s       0.00w      1 call
JK: (Q|mn)  :       0.00u       0.00s       0.00w      1 call
Form H      :       0.00u       0.00s       0.00w      1 call
Form S/X    :       0.00u       0.00s       0.00w      1 call
Guess       :       0.00u       0.00s       0.00w      1 call
Form G      :       0.00u       0.00s       0.00w      7 calls
JK: D       :       0.00u       0.00s       0.00w      7 calls
JK: USO2AO  :       0.00u       0.00s       0.00w      4 calls
JK: JK      :       0.00u       0.00s       0.00w      7 calls
JK: J       :       0.00u       0.00s       0.00w      4 calls
JK: J1      :       0.00u       0.00s       0.00w      4 calls
JK: J2      :       0.00u       0.00s       0.00w      4 calls
JK: K       :       0.00u       0.00s       0.00w      4 calls
JK: K1      :       0.00u       0.00s       0.00w      4 calls
JK: K2      :       0.00u       0.00s       0.00w      4 calls
JK: AO2USO  :       0.00u       0.00s       0.00w      4 calls
Form F      :       0.00u       0.00s       0.00w      7 calls
DIIS        :       0.00u       0.00s       0.00w      7 calls
DIISManager::add_entry:       0.00u       0.00s       0.00w      7 calls
Form C      :       0.00u       0.00s       0.00w      7 calls
Form D      :       0.00u       0.00s       0.00w      7 calls
DIISManager::extrapolate:       0.00u       0.00s       0.00w      6 calls
DIISManager::extrapolate: bMatrix setup:       0.00u       0.00s       0.00w      6 calls
DIISManager::extrapolate: bMatrix pseudoinverse:       0.00u       0.00s       0.00w      6 calls
DIISManager::extrapolate: form new data:       0.00u       0.00s       0.00w      6 calls

***********************************************************

Host: Kevins-MacBook-Pro.local

Timers On : Fri Jan 23 15:03:02 2015
Timers Off: Fri Jan 23 15:03:02 2015

Wall Time:        0.00 seconds

JK: (A|mn)  :       0.00u       0.00s       0.00w      1 call
JK: (A|Q)^-1/2:       0.02u       0.00s       0.00w      1 call
JK: (Q|mn)  :       0.00u       0.00s       0.00w      1 call
Form H      :       0.00u       0.00s       0.00w      1 call
Form S/X    :       0.00u       0.00s       0.00w      1 call
Guess       :       0.00u       0.00s       0.00w      1 call
Form G      :       0.00u       0.00s       0.00w      7 calls
JK: D       :       0.00u       0.00s       0.00w      7 calls
JK: USO2AO  :       0.00u       0.00s       0.00w      4 calls
JK: JK      :       0.00u       0.00s       0.00w      7 calls
JK: J       :       0.00u       0.00s       0.00w      4 calls
JK: J1      :       0.00u       0.00s       0.00w      4 calls
JK: J2      :       0.00u       0.00s       0.00w      4 calls
JK: K       :       0.00u       0.00s       0.00w      4 calls
JK: K1      :       0.00u       0.00s       0.00w      4 calls
JK: K2      :       0.00u       0.00s       0.00w      4 calls
JK: AO2USO  :       0.00u       0.00s       0.00w      4 calls
Form F      :       0.00u       0.00s       0.00w      7 calls
DIIS        :       0.02u       0.00s       0.00w      7 calls
DIISManager::add_entry:       0.00u       0.00s       0.00w      7 calls
Form C      :       0.00u       0.00s       0.00w      7 calls
Form D      :       0.00u       0.00s       0.00w      7 calls
DIISManager::extrapolate:       0.00u       0.00s       0.00w      6 calls
DIISManager::extrapolate: bMatrix setup:       0.00u       0.00s       0.00w      6 calls
DIISManager::extrapolate: bMatrix pseudoinverse:       0.00u       0.00s       0.00w      6 calls
DIISManager::extrapolate: form new data:       0.00u       0.00s       0.00w      6 calls

***********************************************************

Host: Kevins-MacBook-Pro.local

Timers On : Fri Jan 23 15:27:51 2015
Timers Off: Fri Jan 23 15:27:52 2015

Wall Time:        1.00 seconds

JK: (A|mn)  :       0.00u       0.00s       0.00w      1 call
JK: (A|Q)^-1/2:       0.02u       0.00s       0.00w      1 call
JK: (Q|mn)  :       0.00u       0.00s       0.00w      1 call
Form H      :       0.00u       0.00s       0.00w      1 call
Form S/X    :       0.00u       0.00s       0.00w      1 call
Guess       :       0.00u       0.00s       0.00w      1 call
Form G      :       0.00u       0.00s       0.00w      7 calls
JK: D       :       0.00u       0.00s       0.00w      7 calls
JK: USO2AO  :       0.00u       0.00s       0.00w      4 calls
JK: JK      :       0.00u       0.00s       0.00w      7 calls
JK: J       :       0.00u       0.00s       0.00w      4 calls
JK: J1      :       0.00u       0.00s       0.00w      4 calls
JK: J2      :       0.00u       0.00s       0.00w      4 calls
JK: K       :       0.00u       0.00s       0.00w      4 calls
JK: K1      :       0.00u       0.00s       0.00w      4 calls
JK: K2      :       0.00u       0.00s       0.00w      4 calls
JK: AO2USO  :       0.00u       0.00s       0.00w      4 calls
Form F      :       0.00u       0.00s       0.00w      7 calls
DIIS        :       0.00u       0.00s       0.00w      7 calls
DIISManager::add_entry:       0.00u       0.00s       0.00w      7 calls
Form C      :       0.00u       0.00s       0.00w      7 calls
Form D      :       0.00u       0.00s       0.00w      7 calls
DIISManager::extrapolate:       0.00u       0.00s       0.00w      6 calls
DIISManager::extrapolate: bMatrix setup:       0.00u       0.00s       0.00w      6 calls
DIISManager::extrapolate: bMatrix pseudoinverse:       0.00u       0.00s       0.00w      6 calls
DIISManager::extrapolate: form new data:       0.00u       0.00s       0.00w      6 calls

***********************************************************

Host: Kevins-MacBook-Pro.local

Timers On : Fri Jan 23 18:39:02 2015
Timers Off: Fri Jan 23 18:39:02 2015

Wall Time:        0.00 seconds

JK: (A|mn)  :       0.00u       0.00s       0.00w      1 call
JK: (A|Q)^-1/2:       0.02u       0.00s       0.00w      1 call
JK: (Q|mn)  :       0.00u       0.00s       0.00w      1 call
Form H      :       0.00u       0.00s       0.00w      1 call
Form S/X    :       0.00u       0.00s       0.00w      1 call
Guess       :       0.00u       0.00s       0.00w      1 call
Form G      :       0.00u       0.00s       0.00w      7 calls
JK: D       :       0.00u       0.00s       0.00w      7 calls
JK: USO2AO  :       0.00u       0.00s       0.00w      4 calls
JK: JK      :       0.00u       0.00s       0.00w      7 calls
JK: J       :       0.00u       0.00s       0.00w      4 calls
JK: J1      :       0.00u       0.00s       0.00w      4 calls
JK: J2      :       0.00u       0.00s       0.00w      4 calls
JK: K       :       0.00u       0.00s       0.00w      4 calls
JK: K1      :       0.00u       0.00s       0.00w      4 calls
JK: K2      :       0.00u       0.00s       0.00w      4 calls
JK: AO2USO  :       0.00u       0.00s       0.00w      4 calls
Form F      :       0.00u       0.00s       0.00w      7 calls
DIIS        :       0.00u       0.00s       0.00w      7 calls
DIISManager::add_entry:       0.00u       0.00s       0.00w      7 calls
Form C      :       0.00u       0.00s       0.00w      7 calls
Form D      :       0.00u       0.00s       0.00w      7 calls
DIISManager::extrapolate:       0.00u       0.00s       0.00w      6 calls
DIISManager::extrapolate: bMatrix setup:       0.00u       0.00s       0.00w      6 calls
DIISManager::extrapolate: bMatrix pseudoinverse:       0.00u       0.00s       0.00w      6 calls
DIISManager::extrapolate: form new data:       0.00u       0.00s       0.00w      6 calls

***********************************************************

Host: Kevins-MacBook-Pro.local

Timers On : Tue Feb  3 14:05:00 2015
Timers Off: Tue Feb  3 14:05:01 2015

Wall Time:        1.00 seconds

JK: (A|mn)  :       0.00u       0.00s       0.00w      1 call
JK: (A|Q)^-1/2:       0.02u       0.00s       0.00w      1 call
JK: (Q|mn)  :       0.00u       0.00s       0.00w      1 call
Form H      :       0.00u       0.00s       0.00w      1 call
Form S/X    :       0.00u       0.00s       0.00w      1 call
Guess       :       0.00u       0.00s       0.00w      1 call
Form G      :       0.00u       0.00s       0.00w      7 calls
JK: D       :       0.00u       0.00s       0.00w      7 calls
JK: USO2AO  :       0.00u       0.00s       0.00w      4 calls
JK: JK      :       0.00u       0.00s       0.00w      7 calls
JK: J       :       0.00u       0.00s       0.00w      4 calls
JK: J1      :       0.00u       0.00s       0.00w      4 calls
JK: J2      :       0.00u       0.00s       0.00w      4 calls
JK: K       :       0.00u       0.00s       0.00w      4 calls
JK: K1      :       0.00u       0.00s       0.00w      4 calls
JK: K2      :       0.00u       0.00s       0.00w      4 calls
JK: AO2USO  :       0.00u       0.00s       0.00w      4 calls
Form F      :       0.00u       0.00s       0.00w      7 calls
DIIS        :       0.00u       0.00s       0.00w      7 calls
DIISManager::add_entry:       0.00u       0.00s       0.00w      7 calls
Form C      :       0.00u       0.00s       0.00w      7 calls
Form D      :       0.00u       0.00s       0.00w      7 calls
DIISManager::extrapolate:       0.00u       0.00s       0.00w      6 calls
DIISManager::extrapolate: bMatrix setup:       0.00u       0.00s       0.00w      6 calls
DIISManager::extrapolate: bMatrix pseudoinverse:       0.00u       0.00s       0.00w      6 calls
DIISManager::extrapolate: form new data:       0.00u       0.00s       0.00w      6 calls

***********************************************************

Host: Kevins-MacBook-Pro.local

Timers On : Tue Feb  3 14:05:16 2015
Timers Off: Tue Feb  3 14:05:17 2015

Wall Time:        1.00 seconds

JK: (A|mn)  :       0.00u       0.00s       0.00w      1 call
JK: (A|Q)^-1/2:       0.02u       0.00s       0.00w      1 call
JK: (Q|mn)  :       0.00u       0.00s       0.00w      1 call
Form H      :       0.00u       0.00s       0.00w      1 call
Form S/X    :       0.00u       0.00s       0.00w      1 call
Guess       :       0.00u       0.00s       0.00w      1 call
Form G      :       0.00u       0.00s       0.00w      7 calls
JK: D       :       0.00u       0.00s       0.00w      7 calls
JK: USO2AO  :       0.00u       0.00s       0.00w      4 calls
JK: JK      :       0.00u       0.00s       0.00w      7 calls
JK: J       :       0.00u       0.00s       0.00w      4 calls
JK: J1      :       0.00u       0.00s       0.00w      4 calls
JK: J2      :       0.00u       0.00s       0.00w      4 calls
JK: K       :       0.00u       0.00s       0.00w      4 calls
JK: K1      :       0.00u       0.00s       0.00w      4 calls
JK: K2      :       0.00u       0.00s       0.00w      4 calls
JK: AO2USO  :       0.00u       0.00s       0.00w      4 calls
Form F      :       0.00u       0.00s       0.00w      7 calls
DIIS        :       0.00u       0.00s       0.00w      7 calls
DIISManager::add_entry:       0.00u       0.00s       0.00w      7 calls
Form C      :       0.00u       0.00s       0.00w      7 calls
Form D      :       0.00u       0.00s       0.00w      7 calls
DIISManager::extrapolate:       0.00u       0.00s       0.00w      6 calls
DIISManager::extrapolate: bMatrix setup:       0.00u       0.00s       0.00w      6 calls
DIISManager::extrapolate: bMatrix pseudoinverse:       0.00u       0.00s       0.00w      6 calls
DIISManager::extrapolate: form new data:       0.00u       0.00s       0.00w      6 calls

***********************************************************

Host: Kevins-MacBook-Pro.local

Timers On : Tue Feb  3 14:06:34 2015
Timers Off: Tue Feb  3 14:06:34 2015

Wall Time:        0.00 seconds

JK: (A|mn)  :       0.00u       0.00s       0.00w      1 call
JK: (A|Q)^-1/2:       0.02u       0.00s       0.00w      1 call
JK: (Q|mn)  :       0.00u       0.00s       0.00w      1 call
Form H      :       0.00u       0.00s       0.00w      1 call
Form S/X    :       0.00u       0.00s       0.00w      1 call
Guess       :       0.00u       0.00s       0.00w      1 call
Form G      :       0.00u       0.00s       0.00w      7 calls
JK: D       :       0.00u       0.00s       0.00w      7 calls
JK: USO2AO  :       0.00u       0.00s       0.00w      4 calls
JK: JK      :       0.00u       0.00s       0.00w      7 calls
JK: J       :       0.00u       0.00s       0.00w      4 calls
JK: J1      :       0.00u       0.00s       0.00w      4 calls
JK: J2      :       0.00u       0.00s       0.00w      4 calls
JK: K       :       0.00u       0.00s       0.00w      4 calls
JK: K1      :       0.00u       0.00s       0.00w      4 calls
JK: K2      :       0.00u       0.00s       0.00w      4 calls
JK: AO2USO  :       0.00u       0.00s       0.00w      4 calls
Form F      :       0.00u       0.00s       0.00w      7 calls
DIIS        :       0.00u       0.00s       0.00w      7 calls
DIISManager::add_entry:       0.00u       0.00s       0.00w      7 calls
Form C      :       0.00u       0.00s       0.00w      7 calls
Form D      :       0.00u       0.00s       0.00w      7 calls
DIISManager::extrapolate:       0.00u       0.00s       0.00w      6 calls
DIISManager::extrapolate: bMatrix setup:       0.00u       0.00s       0.00w      6 calls
DIISManager::extrapolate: bMatrix pseudoinverse:       0.00u       0.00s       0.00w      6 calls
DIISManager::extrapolate: form new data:       0.00u       0.00s       0.00w      6 calls

***********************************************************

Host: Kevins-MacBook-Pro.local

Timers On : Wed Feb  4 09:58:27 2015
Timers Off: Wed Feb  4 09:58:28 2015

Wall Time:        1.00 seconds

JK: (A|mn)  :       0.00u       0.00s       0.00w      1 call
JK: (A|Q)^-1/2:       0.02u       0.00s       0.00w      1 call
JK: (Q|mn)  :       0.00u       0.00s       0.00w      1 call
Form H      :       0.00u       0.00s       0.00w      1 call
Form S/X    :       0.00u       0.00s       0.00w      1 call
Guess       :       0.00u       0.00s       0.00w      1 call
Form G      :       0.00u       0.00s       0.00w      7 calls
JK: D       :       0.00u       0.00s       0.00w      7 calls
JK: USO2AO  :       0.00u       0.00s       0.00w      4 calls
JK: JK      :       0.00u       0.00s       0.00w      7 calls
JK: J       :       0.00u       0.00s       0.00w      4 calls
JK: J1      :       0.00u       0.00s       0.00w      8 calls
JK: J2      :       0.00u       0.00s       0.00w      8 calls
JK: K       :       0.00u       0.00s       0.00w      4 calls
JK: K1      :       0.00u       0.00s       0.00w      8 calls
JK: K2      :       0.00u       0.00s       0.00w      8 calls
JK: AO2USO  :       0.00u       0.00s       0.00w      4 calls
Form F      :       0.00u       0.00s       0.00w      7 calls
DIIS        :       0.00u       0.00s       0.00w      7 calls
DIISManager::add_entry:       0.00u       0.00s       0.00w      7 calls
Form C      :       0.00u       0.00s       0.00w      7 calls
Form D      :       0.00u       0.00s       0.00w      7 calls
DIISManager::extrapolate:       0.00u       0.00s       0.00w      6 calls
DIISManager::extrapolate: bMatrix setup:       0.00u       0.00s       0.00w      6 calls
DIISManager::extrapolate: bMatrix pseudoinverse:       0.00u       0.00s       0.00w      6 calls
DIISManager::extrapolate: form new data:       0.00u       0.00s       0.00w      6 calls

***********************************************************

Host: Kevins-MacBook-Pro.local

Timers On : Wed Feb  4 09:59:50 2015
Timers Off: Wed Feb  4 09:59:50 2015

Wall Time:        0.00 seconds

JK: (A|mn)  :       0.00u       0.00s       0.00w      1 call
JK: (A|Q)^-1/2:       0.02u       0.00s       0.00w      1 call
JK: (Q|mn)  :       0.00u       0.00s       0.00w      1 call
Form H      :       0.00u       0.00s       0.00w      1 call
Form S/X    :       0.00u       0.00s       0.00w      1 call
Guess       :       0.00u       0.00s       0.00w      1 call
Form G      :       0.00u       0.00s       0.00w      7 calls
JK: D       :       0.00u       0.00s       0.00w      7 calls
JK: USO2AO  :       0.00u       0.00s       0.00w      4 calls
JK: JK      :       0.00u       0.00s       0.00w      7 calls
JK: J       :       0.00u       0.00s       0.00w      4 calls
JK: J1      :       0.00u       0.00s       0.00w      8 calls
JK: J2      :       0.00u       0.00s       0.00w      8 calls
JK: K       :       0.00u       0.00s       0.00w      4 calls
JK: K1      :       0.00u       0.00s       0.00w      8 calls
JK: K2      :       0.00u       0.00s       0.00w      8 calls
JK: AO2USO  :       0.00u       0.00s       0.00w      4 calls
Form F      :       0.00u       0.00s       0.00w      7 calls
DIIS        :       0.02u       0.00s       0.00w      7 calls
DIISManager::add_entry:       0.00u       0.00s       0.00w      7 calls
Form C      :       0.00u       0.00s       0.00w      7 calls
Form D      :       0.00u       0.00s       0.00w      7 calls
DIISManager::extrapolate:       0.02u       0.00s       0.00w      6 calls
DIISManager::extrapolate: bMatrix setup:       0.00u       0.00s       0.00w      6 calls
DIISManager::extrapolate: bMatrix pseudoinverse:       0.00u       0.00s       0.00w      6 calls
DIISManager::extrapolate: form new data:       0.02u       0.00s       0.00w      6 calls

***********************************************************

Host: Kevins-MacBook-Pro.local

Timers On : Wed Feb  4 10:03:00 2015
Timers Off: Wed Feb  4 10:03:01 2015

Wall Time:        1.00 seconds

JK: (A|mn)  :       0.00u       0.00s       0.00w      1 call
JK: (A|Q)^-1/2:       0.02u       0.00s       0.00w      1 call
JK: (Q|mn)  :       0.00u       0.00s       0.00w      1 call
Form H      :       0.00u       0.00s       0.00w      1 call
Form S/X    :       0.00u       0.00s       0.00w      1 call
Guess       :       0.00u       0.00s       0.00w      1 call
Form G      :       0.02u       0.02s       0.00w      7 calls
JK: D       :       0.00u       0.00s       0.00w      7 calls
JK: USO2AO  :       0.00u       0.00s       0.00w      4 calls
JK: JK      :       0.02u       0.02s       0.00w      7 calls
JK: J       :       0.00u       0.00s       0.00w      4 calls
JK: J1      :       0.00u       0.00s       0.00w      8 calls
JK: J2      :       0.00u       0.00s       0.00w      8 calls
JK: K       :       0.00u       0.00s       0.00w      4 calls
JK: K1      :       0.00u       0.00s       0.00w      8 calls
JK: K2      :       0.00u       0.00s       0.00w      8 calls
JK: AO2USO  :       0.00u       0.00s       0.00w      4 calls
Form F      :       0.00u       0.00s       0.00w      7 calls
DIIS        :       0.00u       0.00s       0.00w      7 calls
DIISManager::add_entry:       0.00u       0.00s       0.00w      7 calls
Form C      :       0.00u       0.00s       0.00w      7 calls
Form D      :       0.00u       0.00s       0.00w      7 calls
DIISManager::extrapolate:       0.00u       0.00s       0.00w      6 calls
DIISManager::extrapolate: bMatrix setup:       0.00u       0.00s       0.00w      6 calls
DIISManager::extrapolate: bMatrix pseudoinverse:       0.00u       0.00s       0.00w      6 calls
DIISManager::extrapolate: form new data:       0.00u       0.00s       0.00w      6 calls

***********************************************************

Host: Kevins-MacBook-Pro.local

Timers On : Wed Feb  4 10:04:42 2015
Timers Off: Wed Feb  4 10:04:44 2015

Wall Time:        2.00 seconds

JK: (A|mn)  :       0.00u       0.00s       0.00w      1 call
JK: (A|Q)^-1/2:       0.03u       0.00s       0.00w      1 call
JK: (Q|mn)  :       0.00u       0.00s       0.00w      1 call
Form H      :       0.00u       0.00s       0.00w      1 call
Form S/X    :       0.00u       0.00s       0.00w      1 call
Guess       :       0.00u       0.00s       0.00w      1 call
Form G      :       0.02u       0.00s       0.00w     19 calls
JK: D       :       0.00u       0.00s       0.00w     19 calls
JK: USO2AO  :       0.00u       0.00s       0.00w     13 calls
JK: JK      :       0.02u       0.00s       0.00w     19 calls
JK: J       :       0.00u       0.00s       0.00w     13 calls
JK: J1      :       0.00u       0.00s       0.00w     26 calls
JK: J2      :       0.00u       0.00s       0.00w     26 calls
JK: K       :       0.02u       0.00s       0.00w     13 calls
JK: K1      :       0.02u       0.00s       0.00w     26 calls
JK: K2      :       0.00u       0.00s       0.00w     26 calls
JK: AO2USO  :       0.00u       0.00s       0.00w     13 calls
Form F      :       0.00u       0.00s       0.00w     19 calls
DIIS        :       0.00u       0.00s       0.00w     19 calls
DIISManager::add_entry:       0.00u       0.00s       0.00w     19 calls
Form C      :       0.02u       0.00s       0.00w     19 calls
Form D      :       0.00u       0.00s       0.00w     19 calls
DIISManager::extrapolate:       0.00u       0.00s       0.00w     18 calls
DIISManager::extrapolate: bMatrix setup:       0.00u       0.00s       0.00w     18 calls
DIISManager::extrapolate: bMatrix pseudoinverse:       0.00u       0.00s       0.00w     18 calls
DIISManager::extrapolate: form new data:       0.00u       0.00s       0.00w     18 calls

***********************************************************

Host: Kevins-MacBook-Pro.local

Timers On : Fri Feb 13 11:37:50 2015
Timers Off: Fri Feb 13 11:37:50 2015

Wall Time:        0.00 seconds

JK: (A|mn)  :       0.02u       0.00s       0.00w      1 call
JK: (A|Q)^-1/2:       0.02u       0.00s       0.00w      1 call
JK: (Q|mn)  :       0.00u       0.00s       0.00w      1 call
Form H      :       0.00u       0.00s       0.00w      1 call
Form S/X    :       0.00u       0.00s       0.00w      1 call
Guess       :       0.00u       0.00s       0.00w      1 call
Form G      :       0.00u       0.02s       0.00w     19 calls
JK: D       :       0.00u       0.00s       0.00w     19 calls
JK: USO2AO  :       0.00u       0.00s       0.00w     13 calls
JK: JK      :       0.00u       0.02s       0.00w     19 calls
JK: J       :       0.00u       0.00s       0.00w     13 calls
JK: J1      :       0.00u       0.00s       0.00w     26 calls
JK: J2      :       0.00u       0.00s       0.00w     26 calls
JK: K       :       0.00u       0.00s       0.00w     13 calls
JK: K1      :       0.00u       0.00s       0.00w     26 calls
JK: K2      :       0.00u       0.00s       0.00w     26 calls
JK: AO2USO  :       0.00u       0.00s       0.00w     13 calls
Form F      :       0.00u       0.00s       0.00w     19 calls
DIIS        :       0.00u       0.00s       0.00w     19 calls
DIISManager::add_entry:       0.00u       0.00s       0.00w     19 calls
Form C      :       0.02u       0.00s       0.00w     19 calls
Form D      :       0.00u       0.00s       0.00w     19 calls
DIISManager::extrapolate:       0.00u       0.00s       0.00w     18 calls
DIISManager::extrapolate: bMatrix setup:       0.00u       0.00s       0.00w     18 calls
DIISManager::extrapolate: bMatrix pseudoinverse:       0.00u       0.00s       0.00w     18 calls
DIISManager::extrapolate: form new data:       0.00u       0.00s       0.00w     18 calls

***********************************************************

Host: Kevins-MacBook-Pro.local

Timers On : Fri Feb 13 11:42:43 2015
Timers Off: Fri Feb 13 11:42:44 2015

Wall Time:        1.00 seconds

JK: (A|mn)  :       0.02u       0.00s       0.00w      1 call
JK: (A|Q)^-1/2:       0.02u       0.00s       0.00w      1 call
JK: (Q|mn)  :       0.00u       0.00s       0.00w      1 call
Form H      :       0.00u       0.00s       0.00w      1 call
Form S/X    :       0.00u       0.00s       0.00w      1 call
Guess       :       0.02u       0.00s       0.00w      1 call
Form G      :       0.00u       0.02s       0.00w     19 calls
JK: D       :       0.00u       0.00s       0.00w     19 calls
JK: USO2AO  :       0.00u       0.00s       0.00w     13 calls
JK: JK      :       0.00u       0.02s       0.00w     19 calls
JK: J       :       0.00u       0.00s       0.00w     13 calls
JK: J1      :       0.00u       0.00s       0.00w     26 calls
JK: J2      :       0.00u       0.00s       0.00w     26 calls
JK: K       :       0.00u       0.00s       0.00w     13 calls
JK: K1      :       0.00u       0.00s       0.00w     26 calls
JK: K2      :       0.00u       0.00s       0.00w     26 calls
JK: AO2USO  :       0.00u       0.00s       0.00w     13 calls
Form F      :       0.00u       0.00s       0.00w     19 calls
DIIS        :       0.02u       0.00s       0.00w     19 calls
DIISManager::add_entry:       0.00u       0.00s       0.00w     19 calls
Form C      :       0.02u       0.00s       0.00w     19 calls
Form D      :       0.00u       0.00s       0.00w     19 calls
DIISManager::extrapolate:       0.02u       0.00s       0.00w     18 calls
DIISManager::extrapolate: bMatrix setup:       0.00u       0.00s       0.00w     18 calls
DIISManager::extrapolate: bMatrix pseudoinverse:       0.02u       0.00s       0.00w     18 calls
DIISManager::extrapolate: form new data:       0.00u       0.00s       0.00w     18 calls

***********************************************************

Host: Kevins-MacBook-Pro.local

Timers On : Fri Feb 13 12:02:43 2015
Timers Off: Fri Feb 13 12:02:43 2015

Wall Time:        0.00 seconds

JK: (A|mn)  :       0.02u       0.00s       0.00w      1 call
JK: (A|Q)^-1/2:       0.02u       0.00s       0.00w      1 call
JK: (Q|mn)  :       0.00u       0.00s       0.00w      1 call
Form H      :       0.00u       0.00s       0.00w      1 call
Form S/X    :       0.00u       0.00s       0.00w      1 call
Guess       :       0.00u       0.00s       0.00w      1 call
Form G      :       0.00u       0.00s       0.00w     19 calls
JK: D       :       0.00u       0.00s       0.00w     19 calls
JK: USO2AO  :       0.00u       0.00s       0.00w     13 calls
JK: JK      :       0.00u       0.00s       0.00w     19 calls
JK: J       :       0.00u       0.00s       0.00w     13 calls
JK: J1      :       0.00u       0.00s       0.00w     26 calls
JK: J2      :       0.00u       0.00s       0.00w     26 calls
JK: K       :       0.00u       0.00s       0.00w     13 calls
JK: K1      :       0.00u       0.00s       0.00w     26 calls
JK: K2      :       0.00u       0.00s       0.00w     26 calls
JK: AO2USO  :       0.00u       0.00s       0.00w     13 calls
Form F      :       0.00u       0.00s       0.00w     19 calls
DIIS        :       0.02u       0.00s       0.00w     19 calls
DIISManager::add_entry:       0.00u       0.00s       0.00w     19 calls
Form C      :       0.02u       0.00s       0.00w     19 calls
Form D      :       0.00u       0.00s       0.00w     19 calls
DIISManager::extrapolate:       0.00u       0.00s       0.00w     18 calls
DIISManager::extrapolate: bMatrix setup:       0.00u       0.00s       0.00w     18 calls
DIISManager::extrapolate: bMatrix pseudoinverse:       0.00u       0.00s       0.00w     18 calls
DIISManager::extrapolate: form new data:       0.00u       0.00s       0.00w     18 calls

***********************************************************

Host: Kevins-MacBook-Pro.local

Timers On : Fri Feb 13 12:11:32 2015
Timers Off: Fri Feb 13 12:11:32 2015

Wall Time:        0.00 seconds

JK: (A|mn)  :       0.00u       0.00s       0.00w      1 call
JK: (A|Q)^-1/2:       0.03u       0.00s       0.00w      1 call
JK: (Q|mn)  :       0.00u       0.00s       0.00w      1 call
Form H      :       0.00u       0.00s       0.00w      1 call
Form S/X    :       0.00u       0.00s       0.00w      1 call
Guess       :       0.00u       0.00s       0.00w      1 call
Form G      :       0.00u       0.02s       0.00w     19 calls
JK: D       :       0.00u       0.00s       0.00w     19 calls
JK: USO2AO  :       0.00u       0.00s       0.00w     13 calls
JK: JK      :       0.00u       0.02s       0.00w     19 calls
JK: J       :       0.00u       0.00s       0.00w     13 calls
JK: J1      :       0.00u       0.00s       0.00w     26 calls
JK: J2      :       0.00u       0.00s       0.00w     26 calls
JK: K       :       0.00u       0.00s       0.00w     13 calls
JK: K1      :       0.00u       0.00s       0.00w     26 calls
JK: K2      :       0.00u       0.00s       0.00w     26 calls
JK: AO2USO  :       0.00u       0.00s       0.00w     13 calls
Form F      :       0.00u       0.00s       0.00w     19 calls
DIIS        :       0.00u       0.00s       0.00w     19 calls
DIISManager::add_entry:       0.00u       0.00s       0.00w     19 calls
Form C      :       0.03u       0.00s       0.00w     19 calls
Form D      :       0.00u       0.00s       0.00w     19 calls
DIISManager::extrapolate:       0.00u       0.00s       0.00w     18 calls
DIISManager::extrapolate: bMatrix setup:       0.00u       0.00s       0.00w     18 calls
DIISManager::extrapolate: bMatrix pseudoinverse:       0.00u       0.00s       0.00w     18 calls
DIISManager::extrapolate: form new data:       0.00u       0.00s       0.00w     18 calls

***********************************************************

Host: Kevins-MacBook-Pro.local

Timers On : Fri Feb 13 12:11:52 2015
Timers Off: Fri Feb 13 12:11:52 2015

Wall Time:        0.00 seconds

JK: (A|mn)  :       0.00u       0.00s       0.00w      1 call
[...]
Form D      :       0.00u       0.00s       0.00w     33 calls
DIISManager::extrapolate:       0.00u       0.00s       0.00w     31 calls
DIISManager::extrapolate: bMatrix setup:       0.00u       0.00s       0.00w     31 calls
DIISManager::extrapolate: bMatrix pseudoinverse:       0.00u       0.00s       0.00w     31 calls
DIISManager::extrapolate: form new data:       0.00u       0.00s       0.00w     31 calls

***********************************************************

Host: Kevins-MacBook-Pro.local

Timers On : Fri Mar 27 14:49:08 2015
Timers Off: Fri Mar 27 14:49:09 2015

Wall Time:        1.00 seconds

JK: (A|mn)  :       0.00u       0.00s       0.00w      2 calls
JK: (A|Q)^-1/2:       0.07u       0.00s       0.00w      2 calls
JK: (Q|mn)  :       0.00u       0.00s       0.00w      2 calls
Form H      :       0.00u       0.00s       0.00w      2 calls
Form S/X    :       0.00u       0.00s       0.00w      2 calls
Guess       :       0.00u       0.00s       0.00w      2 calls
Form G      :       0.00u       0.00s       0.00w     33 calls
JK: D       :       0.00u       0.00s       0.00w     33 calls
JK: USO2AO  :       0.00u       0.00s       0.00w     24 calls
JK: JK      :       0.00u       0.00s       0.00w     33 calls
JK: J       :       0.00u       0.00s       0.00w     24 calls
JK: J1      :       0.00u       0.00s       0.00w     24 calls
JK: J2      :       0.00u       0.00s       0.00w     24 calls
JK: K       :       0.00u       0.00s       0.00w     24 calls
JK: K1      :       0.00u       0.00s       0.00w     24 calls
JK: K2      :       0.00u       0.00s       0.00w     24 calls
JK: AO2USO  :       0.00u       0.00s       0.00w     24 calls
Form F      :       0.00u       0.00s       0.00w     33 calls
DIIS        :       0.00u       0.02s       0.00w     33 calls
DIISManager::add_entry:       0.00u       0.02s       0.00w     33 calls
Form C      :       0.02u       0.00s       0.00w     33 calls
Form D      :       0.00u       0.00s       0.00w     33 calls
DIISManager::extrapolate:       0.00u       0.00s       0.00w     31 calls
DIISManager::extrapolate: bMatrix setup:       0.00u       0.00s       0.00w     31 calls
DIISManager::extrapolate: bMatrix pseudoinverse:       0.00u       0.00s       0.00w     31 calls
DIISManager::extrapolate: form new data:       0.00u       0.00s       0.00w     31 calls

***********************************************************

Host: Kevins-MacBook-Pro.local

Timers On : Fri Mar 27 14:49:15 2015
Timers Off: Fri Mar 27 14:49:16 2015

Wall Time:        1.00 seconds

JK: (A|mn)  :       0.02u       0.00s       1.00w      2 calls
JK: (A|Q)^-1/2:       0.07u       0.00s       0.00w      2 calls
JK: (Q|mn)  :       0.00u       0.00s       0.00w      2 calls
Form H      :       0.00u       0.00s       0.00w      2 calls
Form S/X    :       0.00u       0.00s       0.00w      2 calls
Guess       :       0.00u       0.00s       0.00w      2 calls
Form G      :       0.02u       0.00s       0.00w     33 calls
JK: D       :       0.00u       0.00s       0.00w     33 calls
JK: USO2AO  :       0.00u       0.00s       0.00w     24 calls
JK: JK      :       0.02u       0.00s       0.00w     33 calls
JK: J       :       0.00u       0.00s       0.00w     24 calls
JK: J1      :       0.00u       0.00s       0.00w     24 calls
JK: J2      :       0.00u       0.00s       0.00w     24 calls
JK: K       :       0.02u       0.00s       0.00w     24 calls
JK: K1      :       0.02u       0.00s       0.00w     24 calls
JK: K2      :       0.00u       0.00s       0.00w     24 calls
JK: AO2USO  :       0.00u       0.00s       0.00w     24 calls
Form F      :       0.00u       0.00s       0.00w     33 calls
DIIS        :       0.00u       0.02s       0.00w     33 calls
DIISManager::add_entry:       0.00u       0.00s       0.00w     33 calls
Form C      :       0.00u       0.00s       0.00w     33 calls
Form D      :       0.00u       0.00s       0.00w     33 calls
DIISManager::extrapolate:       0.00u       0.02s       0.00w     31 calls
DIISManager::extrapolate: bMatrix setup:       0.00u       0.02s       0.00w     31 calls
DIISManager::extrapolate: bMatrix pseudoinverse:       0.00u       0.00s       0.00w     31 calls
DIISManager::extrapolate: form new data:       0.00u       0.00s       0.00w     31 calls

***********************************************************

Host: Kevins-MacBook-Pro.local

Timers On : Mon Mar 30 18:25:11 2015
Timers Off: Mon Mar 30 18:25:13 2015

Wall Time:        2.00 seconds

JK: (A|mn)  :       0.03u       0.00s       0.00w      2 calls
JK: (A|Q)^-1/2:       0.07u       0.00s       0.00w      2 calls
JK: (Q|mn)  :       0.00u       0.00s       0.00w      2 calls
Form H      :       0.02u       0.00s       0.00w      2 calls
Form S/X    :       0.00u       0.00s       0.00w      2 calls
Guess       :       0.00u       0.00s       0.00w      2 calls
Form G      :       0.02u       0.00s       0.00w     28 calls
JK: D       :       0.00u       0.00s       0.00w     28 calls
JK: USO2AO  :       0.00u       0.00s       0.00w     18 calls
JK: JK      :       0.02u       0.00s       0.00w     28 calls
JK: J       :       0.00u       0.00s       0.00w     18 calls
JK: J1      :       0.00u       0.00s       0.00w     18 calls
JK: J2      :       0.00u       0.00s       0.00w     18 calls
JK: K       :       0.02u       0.00s       0.00w     18 calls
JK: K1      :       0.02u       0.00s       0.00w     18 calls
JK: K2      :       0.00u       0.00s       0.00w     18 calls
JK: AO2USO  :       0.00u       0.00s       0.00w     18 calls
Form F      :       0.00u       0.00s       0.00w     28 calls
DIIS        :       0.00u       0.00s       0.00w     28 calls
DIISManager::add_entry:       0.00u       0.00s       0.00w     28 calls
Form C      :       0.03u       0.00s       0.00w     28 calls
Form D      :       0.00u       0.00s       0.00w     28 calls
DIISManager::extrapolate:       0.00u       0.00s       0.00w     26 calls
DIISManager::extrapolate: bMatrix setup:       0.00u       0.00s       0.00w     26 calls
DIISManager::extrapolate: bMatrix pseudoinverse:       0.00u       0.00s       0.00w     26 calls
DIISManager::extrapolate: form new data:       0.00u       0.00s       0.00w     26 calls

***********************************************************

Host: Kevins-MacBook-Pro.local

Timers On : Mon Mar 30 18:25:29 2015
Timers Off: Mon Mar 30 18:25:31 2015

Wall Time:        2.00 seconds

JK: (A|mn)  :       0.03u       0.00s       0.00w      2 calls
JK: (A|Q)^-1/2:       0.07u       0.00s       0.00w      2 calls
JK: (Q|mn)  :       0.00u       0.00s       0.00w      2 calls
Form H      :       0.00u       0.00s       0.00w      2 calls
Form S/X    :       0.00u       0.00s       0.00w      2 calls
Guess       :       0.00u       0.00s       0.00w      2 calls
Form G      :       0.00u       0.02s       0.00w     28 calls
JK: D       :       0.00u       0.00s       0.00w     28 calls
JK: USO2AO  :       0.00u       0.00s       0.00w     18 calls
JK: JK      :       0.00u       0.02s       0.00w     28 calls
JK: J       :       0.00u       0.00s       0.00w     18 calls
JK: J1      :       0.00u       0.00s       0.00w     18 calls
JK: J2      :       0.00u       0.00s       0.00w     18 calls
JK: K       :       0.00u       0.00s       0.00w     18 calls
JK: K1      :       0.00u       0.00s       0.00w     18 calls
JK: K2      :       0.00u       0.00s       0.00w     18 calls
JK: AO2USO  :       0.00u       0.00s       0.00w     18 calls
Form F      :       0.00u       0.00s       0.00w     28 calls
DIIS        :       0.00u       0.00s       0.00w     28 calls
DIISManager::add_entry:       0.00u       0.00s       0.00w     28 calls
Form C      :       0.00u       0.00s       0.00w     28 calls
Form D      :       0.02u       0.00s       0.00w     28 calls
DIISManager::extrapolate:       0.00u       0.00s       0.00w     26 calls
DIISManager::extrapolate: bMatrix setup:       0.00u       0.00s       0.00w     26 calls
DIISManager::extrapolate: bMatrix pseudoinverse:       0.00u       0.00s       0.00w     26 calls
DIISManager::extrapolate: form new data:       0.00u       0.00s       0.00w     26 calls

***********************************************************

Host: Kevins-MacBook-Pro.local

Timers On : Mon Mar 30 18:25:45 2015
Timers Off: Mon Mar 30 18:25:46 2015

Wall Time:        1.00 seconds

JK: (A|mn)  :       0.03u       0.00s       0.00w      2 calls
JK: (A|Q)^-1/2:       0.07u       0.00s       0.00w      2 calls
JK: (Q|mn)  :       0.00u       0.00s       0.00w      2 calls
Form H      :       0.00u       0.00s       0.00w      2 calls
Form S/X    :       0.00u       0.00s       0.00w      2 calls
Guess       :       0.00u       0.00s       0.00w      2 calls
Form G      :       0.02u       0.00s       0.00w     28 calls
JK: D       :       0.00u       0.00s       0.00w     28 calls
JK: USO2AO  :       0.00u       0.00s       0.00w     18 calls
JK: JK      :       0.02u       0.00s       0.00w     28 calls
JK: J       :       0.00u       0.00s       0.00w     18 calls
JK: J1      :       0.00u       0.00s       0.00w     18 calls
JK: J2      :       0.00u       0.00s       0.00w     18 calls
JK: K       :       0.02u       0.00s       0.00w     18 calls
JK: K1      :       0.02u       0.00s       0.00w     18 calls
JK: K2      :       0.00u       0.00s       0.00w     18 calls
JK: AO2USO  :       0.00u       0.00s       0.00w     18 calls
Form F      :       0.00u       0.00s       0.00w     28 calls
DIIS        :       0.02u       0.00s       0.00w     28 calls
DIISManager::add_entry:       0.00u       0.00s       0.00w     28 calls
Form C      :       0.00u       0.00s       0.00w     28 calls
Form D      :       0.00u       0.00s       0.00w     28 calls
DIISManager::extrapolate:       0.02u       0.00s       0.00w     26 calls
DIISManager::extrapolate: bMatrix setup:       0.00u       0.00s       0.00w     26 calls
DIISManager::extrapolate: bMatrix pseudoinverse:       0.02u       0.00s       0.00w     26 calls
DIISManager::extrapolate: form new data:       0.00u       0.00s       0.00w     26 calls

***********************************************************

Host: Kevins-MacBook-Pro.local

Timers On : Mon Mar 30 18:26:22 2015
Timers Off: Mon Mar 30 18:26:24 2015

Wall Time:        2.00 seconds

JK: (A|mn)  :       0.03u       0.00s       0.00w      2 calls
JK: (A|Q)^-1/2:       0.07u       0.00s       0.00w      2 calls
JK: (Q|mn)  :       0.00u       0.00s       0.00w      2 calls
Form H      :       0.00u       0.00s       0.00w      2 calls
Form S/X    :       0.00u       0.00s       0.00w      2 calls
Guess       :       0.02u       0.00s       0.00w      2 calls
Form G      :       0.00u       0.00s       0.00w     28 calls
JK: D       :       0.00u       0.00s       0.00w     28 calls
JK: USO2AO  :       0.00u       0.00s       0.00w     18 calls
JK: JK      :       0.00u       0.00s       0.00w     28 calls
JK: J       :       0.00u       0.00s       0.00w     18 calls
JK: J1      :       0.00u       0.00s       0.00w     18 calls
JK: J2      :       0.00u       0.00s       0.00w     18 calls
JK: K       :       0.00u       0.00s       0.00w     18 calls
JK: K1      :       0.00u       0.00s       0.00w     18 calls
JK: K2      :       0.00u       0.00s       0.00w     18 calls
JK: AO2USO  :       0.00u       0.00s       0.00w     18 calls
Form F      :       0.00u       0.00s       0.00w     28 calls
DIIS        :       0.02u       0.00s       0.00w     28 calls
DIISManager::add_entry:       0.00u       0.00s       0.00w     28 calls
Form C      :       0.00u       0.00s       0.00w     28 calls
Form D      :       0.00u       0.00s       0.00w     28 calls
DIISManager::extrapolate:       0.02u       0.00s       0.00w     26 calls
DIISManager::extrapolate: bMatrix setup:       0.00u       0.00s       0.00w     26 calls
DIISManager::extrapolate: bMatrix pseudoinverse:       0.00u       0.00s       0.00w     26 calls
DIISManager::extrapolate: form new data:       0.02u       0.00s       0.00w     26 calls

***********************************************************

Host: Kevins-MacBook-Pro.local

Timers On : Wed Apr  8 23:24:30 2015
Timers Off: Wed Apr  8 23:24:31 2015

Wall Time:        1.00 seconds

JK: (A|mn)  :       0.03u       0.00s       0.00w      2 calls
JK: (A|Q)^-1/2:       0.07u       0.00s       0.00w      2 calls
JK: (Q|mn)  :       0.00u       0.00s       0.00w      2 calls
Form H      :       0.00u       0.00s       0.00w      2 calls
Form S/X    :       0.00u       0.00s       0.00w      2 calls
Guess       :       0.00u       0.00s       0.00w      2 calls
Form G      :       0.02u       0.02s       0.00w     28 calls
JK: D       :       0.00u       0.00s       0.00w     28 calls
JK: USO2AO  :       0.00u       0.00s       0.00w     18 calls
JK: JK      :       0.02u       0.02s       0.00w     28 calls
JK: J       :       0.00u       0.00s       0.00w     18 calls
JK: J1      :       0.00u       0.00s       0.00w     18 calls
JK: J2      :       0.00u       0.00s       0.00w     18 calls
JK: K       :       0.02u       0.00s       0.00w     18 calls
JK: K1      :       0.02u       0.00s       0.00w     18 calls
JK: K2      :       0.00u       0.00s       0.00w     18 calls
JK: AO2USO  :       0.00u       0.00s       0.00w     18 calls
Form F      :       0.00u       0.00s       0.00w     28 calls
DIIS        :       0.00u       0.00s       0.00w     28 calls
DIISManager::add_entry:       0.00u       0.00s       0.00w     28 calls
Form C      :       0.00u       0.00s       0.00w     28 calls
Form D      :       0.00u       0.00s       0.00w     28 calls
DIISManager::extrapolate:       0.00u       0.00s       0.00w     26 calls
DIISManager::extrapolate: bMatrix setup:       0.00u       0.00s       0.00w     26 calls
DIISManager::extrapolate: bMatrix pseudoinverse:       0.00u       0.00s       0.00w     26 calls
DIISManager::extrapolate: form new data:       0.00u       0.00s       0.00w     26 calls

***********************************************************

Host: Kevins-MacBook-Pro.local

Timers On : Wed Apr  8 23:24:53 2015
Timers Off: Wed Apr  8 23:24:53 2015

Wall Time:        0.00 seconds

JK: (A|mn)  :       0.00u       0.00s       0.00w      2 calls
JK: (A|Q)^-1/2:       0.07u       0.00s       0.00w      2 calls
JK: (Q|mn)  :       0.00u       0.00s       0.00w      2 calls
Form H      :       0.00u       0.00s       0.00w      2 calls
Form S/X    :       0.00u       0.00s       0.00w      2 calls
Guess       :       0.00u       0.00s       0.00w      2 calls
Form G      :       0.00u       0.00s       0.00w     31 calls
JK: D       :       0.00u       0.00s       0.00w     31 calls
JK: USO2AO  :       0.00u       0.00s       0.00w     22 calls
JK: JK      :       0.00u       0.00s       0.00w     31 calls
JK: J       :       0.00u       0.00s       0.00w     22 calls
JK: J1      :       0.00u       0.00s       0.00w     22 calls
JK: J2      :       0.00u       0.00s       0.00w     22 calls
JK: K       :       0.00u       0.00s       0.00w     22 calls
JK: K1      :       0.00u       0.00s       0.00w     22 calls
JK: K2      :       0.00u       0.00s       0.00w     22 calls
JK: AO2USO  :       0.00u       0.00s       0.00w     22 calls
Form F      :       0.00u       0.00s       0.00w     31 calls
DIIS        :       0.00u       0.02s       0.00w     31 calls
DIISManager::add_entry:       0.00u       0.02s       0.00w     31 calls
Form C      :       0.00u       0.00s       0.00w     31 calls
Form D      :       0.00u       0.00s       0.00w     31 calls
DIISManager::extrapolate:       0.00u       0.00s       0.00w     29 calls
DIISManager::extrapolate: bMatrix setup:       0.00u       0.00s       0.00w     29 calls
DIISManager::extrapolate: bMatrix pseudoinverse:       0.00u       0.00s       0.00w     29 calls
DIISManager::extrapolate: form new data:       0.00u       0.00s       0.00w     29 calls

***********************************************************

Host: Kevins-MacBook-Pro.local

Timers On : Thu Apr  9 15:31:09 2015
Timers Off: Thu Apr  9 15:31:10 2015

Wall Time:        1.00 seconds

JK: (A|mn)  :       0.02u       0.00s       0.00w      2 calls
JK: (A|Q)^-1/2:       0.03u       0.00s       0.00w      2 calls
JK: (Q|mn)  :       0.00u       0.00s       0.00w      2 calls
Form H      :       0.00u       0.00s       0.00w      2 calls
Form S/X    :       0.00u       0.00s       0.00w      2 calls
Guess       :       0.00u       0.00s       0.00w      2 calls
Form G      :       0.02u       0.00s       0.00w     31 calls
JK: D       :       0.00u       0.00s       0.00w     31 calls
JK: USO2AO  :       0.00u       0.00s       0.00w     22 calls
JK: JK      :       0.02u       0.00s       0.00w     31 calls
JK: J       :       0.00u       0.00s       0.00w     22 calls
JK: J1      :       0.00u       0.00s       0.00w     22 calls
JK: J2      :       0.00u       0.00s       0.00w     22 calls
JK: K       :       0.02u       0.00s       0.00w     22 calls
JK: K1      :       0.02u       0.00s       0.00w     22 calls
JK: K2      :       0.00u       0.00s       0.00w     22 calls
JK: AO2USO  :       0.00u       0.00s       0.00w     22 calls
Form F      :       0.00u       0.00s       0.00w     31 calls
DIIS        :       0.02u       0.02s       0.00w     31 calls
DIISManager::add_entry:       0.00u       0.02s       0.00w     31 calls
Form C      :       0.00u       0.00s       0.00w     31 calls
Form D      :       0.00u       0.00s       0.00w     31 calls
DIISManager::extrapolate:       0.00u       0.00s       0.00w     29 calls
DIISManager::extrapolate: bMatrix setup:       0.00u       0.00s       0.00w     29 calls
DIISManager::extrapolate: bMatrix pseudoinverse:       0.00u       0.00s       0.00w     29 calls
DIISManager::extrapolate: form new data:       0.00u       0.00s       0.00w     29 calls

***********************************************************

Host: Kevins-MacBook-Pro.local

Timers On : Sun Apr 19 20:13:04 2015
Timers Off: Sun Apr 19 20:13:05 2015

Wall Time:        1.00 seconds

JK: (A|mn)  :       0.02u       0.00s       0.00w      2 calls
JK: (A|Q)^-1/2:       0.07u       0.00s       0.00w      2 calls
JK: (Q|mn)  :       0.00u       0.00s       0.00w      2 calls
Form H      :       0.00u       0.00s       0.00w      2 calls
Form S/X    :       0.00u       0.00s       0.00w      2 calls
Guess       :       0.00u       0.00s       0.00w      2 calls
Form G      :       0.00u       0.00s       0.00w     31 calls
JK: D       :       0.00u       0.00s       0.00w     31 calls
JK: USO2AO  :       0.00u       0.00s       0.00w     22 calls
JK: JK      :       0.00u       0.00s       0.00w     31 calls
JK: J       :       0.00u       0.00s       0.00w     22 calls
JK: J1      :       0.00u       0.00s       0.00w     22 calls
JK: J2      :       0.00u       0.00s       0.00w     22 calls
JK: K       :       0.00u       0.00s       0.00w     22 calls
JK: K1      :       0.00u       0.00s       0.00w     22 calls
JK: K2      :       0.00u       0.00s       0.00w     22 calls
JK: AO2USO  :       0.00u       0.00s       0.00w     22 calls
Form F      :       0.00u       0.00s       0.00w     31 calls
DIIS        :       0.00u       0.00s       0.00w     31 calls
DIISManager::add_entry:       0.00u       0.00s       0.00w     31 calls
Form C      :       0.00u       0.00s       0.00w     31 calls
Form D      :       0.00u       0.00s       0.00w     31 calls
DIISManager::extrapolate:       0.00u       0.00s       0.00w     29 calls
DIISManager::extrapolate: bMatrix setup:       0.00u       0.00s       0.00w     29 calls
DIISManager::extrapolate: bMatrix pseudoinverse:       0.00u       0.00s       0.00w     29 calls
DIISManager::extrapolate: form new data:       0.00u       0.00s       0.00w     29 calls

***********************************************************
