    -----------------------------------------------------------------------
          PSI4: An Open-Source Ab Initio Electronic Structure Package
                              PSI 4.0 Driver

               Git: Rev {master} 556e8139d3cfa1f96ccffe2cdf22cc56a185d2b2

    J. M. Turney, A. C. Simmonett, R. M. Parrish, E. G. Hohenstein,
    F. A. Evangelista, J. T. Fermann, B. J. Mintz, L. A. Burns, J. J. Wilke,
    M. L. Abrams, N. J. Russ, M. L. Leininger, C. L. Janssen, E. T. Seidl,
    W. D. Allen, H. F. Schaefer, R. A. King, E. F. Valeev, C. D. Sherrill,
    and T. D. Crawford, WIREs Comput. Mol. Sci. 2, 556-565 (2012)
    (doi: 10.1002/wcms.93)

                         Additional Contributions by
    A. E. DePrince, M. Saitow, U. Bozkaya, A. Yu. Sokolov
    -----------------------------------------------------------------------

    Process ID:  11944
    PSI4DATADIR: /Users/kevinhannon/Programs/psi4cmake/psi4/lib
    Memory level set to 256.000 MB

  ==> Input File <==

--------------------------------------------------------------------------

# PYTHONPATH must include directory above plugin directory.
#     Define either externally or here, then import plugin.
sys.path.insert(0, '/Users/kevinhannon/Programs/Quantum_Programs/Quantum-Programs/GS/')
import scf

molecule {
0 1
H
H 1 1.90000
symmetry c1
units angstrom
}


set {
  basis cc-pvdz
  reference rhf
  scf_type  pk
}

set scf {
  DO_FTHF true
  MAX_ITER 130
  MAX_TEMP 100
  TEMP_INCREMENT 0
  bisect  true
  bisect_iter  40
}
energy('rhf')

energy('scf')


--------------------------------------------------------------------------

*** tstart() called on Kevins-MacBook-Pro.local
*** at Fri Apr 10 18:02:10 2015

/Users/kevinhannon/Programs/Quantum_Programs/Quantum-Programs/GS/scf/scf.so loaded.

*** tstart() called on Kevins-MacBook-Pro.local
*** at Fri Apr 10 18:02:10 2015


         ---------------------------------------------------------
                                   SCF
            by Justin Turney, Rob Parrish, and Andy Simmonett
                              RHF Reference
                        1 Threads,    256 MiB Core
         ---------------------------------------------------------

  ==> Geometry <==

    Molecular point group: c1
    Full point group: D_inf_h

    Geometry (in Angstrom), charge = 0, multiplicity = 1:

       Center              X                  Y                   Z       
    ------------   -----------------  -----------------  -----------------
           H          0.000000000000     0.000000000000    -0.950000000000
           H          0.000000000000     0.000000000000     0.950000000000

  Running in c1 symmetry.

  Rotational constants: A = ************  B =      9.26689  C =      9.26689 [cm^-1]
  Rotational constants: A = ************  B = 277814.46135  C = 277814.46135 [MHz]
  Nuclear repulsion =    0.278514320310526

  Charge       = 0
  Multiplicity = 1
  Electrons    = 2
  Nalpha       = 1
  Nbeta        = 1

  ==> Algorithm <==

  SCF Algorithm Type is PK.
  DIIS enabled.
  MOM disabled.
  Fractional occupation disabled.
  Guess Type is CORE.
  Energy threshold   = 1.00e-06
  Density threshold  = 1.00e-06
  Integral threshold = 0.00e+00

  ==> Primary Basis <==

  Basis Set: CC-PVDZ
    Number of shells: 6
    Number of basis function: 10
    Number of Cartesian functions: 10
    Spherical Harmonics?: true
    Max angular momentum: 1

  ==> Pre-Iterations <==

   -------------------------------------------------------
    Irrep   Nso     Nmo     Nalpha   Nbeta   Ndocc  Nsocc
   -------------------------------------------------------
     A         10      10       0       0       0       0
   -------------------------------------------------------
    Total      10      10       1       1       1       0
   -------------------------------------------------------

  Starting with a DF guess...

 OEINTS: Overlap, kinetic, potential, dipole, and quadrupole integrals
         stored in file 35.

  ==> Integral Setup <==

  ==> DFJK: Density-Fitted J/K Matrices <==

    J tasked:                  Yes
    K tasked:                  Yes
    wK tasked:                  No
    OpenMP threads:              1
    Integrals threads:           1
    Memory (MB):               183
    Algorithm:                Core
    Integral Cache:           NONE
    Schwarz Cutoff:          1E-12
    Fitting Condition:       1E-12

   => Auxiliary Basis Set <=

  Basis Set: 
    Number of shells: 18
    Number of basis function: 46
    Number of Cartesian functions: 50
    Spherical Harmonics?: true
    Max angular momentum: 2

  Minimum eigenvalue in the overlap matrix is 2.0962876078E-01.
  Using Symmetric Orthogonalization.
  SCF Guess: Core (One-Electron) Hamiltonian.

  ==> Iterations <==

                           Total Energy        Delta E     RMS |[F,P]|

   @DF-RHF iter   1:    -0.91367311161387   -9.13673e-01   1.45259e-02 
   @DF-RHF iter   2:    -0.93524141830639   -2.15683e-02   2.49265e-03 DIIS
   @DF-RHF iter   3:    -0.93592489838558   -6.83480e-04   8.33630e-05 DIIS
   @DF-RHF iter   4:    -0.93592551110022   -6.12715e-07   4.60617e-07 DIIS

  DF guess converged.

  ==> Integral Setup <==

 MINTS: Wrapper to libmints.
   by Justin Turney

   Calculation information:
      Number of atoms:                   2
      Number of AO shells:               6
      Number of SO shells:               6
      Number of primitives:             10
      Number of atomic orbitals:        10
      Number of basis functions:        10

      Number of irreps:                  1
      Integral cutoff                 0.00e+00
      Number of functions per irrep: [  10 ]

 OEINTS: Overlap, kinetic, potential, dipole, and quadrupole integrals
         stored in file 35.

      Computing two-electron integrals...done
      Computed 512 non-zero two-electron integrals.
        Stored in file 33.

	Batch   1 pq = [       0,      55] index = [             0,1540]
  ==> DiskJK: Disk-Based J/K Matrices <==

    J tasked:                  Yes
    K tasked:                  Yes
    wK tasked:                  No
    Memory (MB):               183
    Schwarz Cutoff:          1E-12

   @RHF iter   5:    -0.93591768081113    7.83029e-06   2.78076e-06 DIIS
   @RHF iter   6:    -0.93591768158063   -7.69493e-10   4.69724e-07 DIIS

  ==> Post-Iterations <==

    Orbital Energies (a.u.)
    -----------------------

    Doubly Occupied:                                                      

       1A     -0.394723  

    Virtual:                                                              

       2A     -0.023101     3A      0.653309     4A      0.675153  
       5A      1.306979     6A      1.445965     7A      1.445965  
       8A      1.515211     9A      1.515211    10A      1.773963  

    Final Occupation by Irrep:
              A 
    DOCC [     1 ]

  Energy converged.

  @RHF Final Energy:    -0.93591768158063

   => Energetics <=

    Nuclear Repulsion Energy =              0.2785143203105263
    One-Electron Energy =                  -1.6394175069424484
    Two-Electron Energy =                   0.4249855050512961
    DFT Exchange-Correlation Energy =       0.0000000000000000
    Empirical Dispersion Energy =           0.0000000000000000
    PCM Polarization Energy =               0.0000000000000000
    EFP Energy =                            0.0000000000000000
    Total Energy =                         -0.9359176815806260

    Alert: EFP and PCM quantities not currently incorporated into SCF psivars.

Properties will be evaluated at   0.000000,   0.000000,   0.000000 Bohr
  ==> Properties <==


Properties computed using the SCF density matrix

  Nuclear Dipole Moment: (a.u.)
     X:     0.0000      Y:     0.0000      Z:     0.0000

  Electronic Dipole Moment: (a.u.)
     X:     0.0000      Y:    -0.0000      Z:     0.0000

  Dipole Moment: (a.u.)
     X:     0.0000      Y:    -0.0000      Z:     0.0000     Total:     0.0000

  Dipole Moment: (Debye)
     X:     0.0000      Y:    -0.0000      Z:     0.0000     Total:     0.0000


  Saving occupied orbitals to File 180.

*** tstop() called on Kevins-MacBook-Pro.local at Fri Apr 10 18:02:11 2015
Module time:
	user time   =       0.19 seconds =       0.00 minutes
	system time =       0.01 seconds =       0.00 minutes
	total time  =          1 seconds =       0.02 minutes
Total time:
	user time   =       0.20 seconds =       0.00 minutes
	system time =       0.01 seconds =       0.00 minutes
	total time  =          1 seconds =       0.02 minutes

*** tstart() called on Kevins-MacBook-Pro.local
*** at Fri Apr 10 18:02:11 2015


         ---------------------------------------------------------
                                   SCF
            by Justin Turney, Rob Parrish, and Andy Simmonett
                              RHF Reference
                        1 Threads,    256 MiB Core
         ---------------------------------------------------------

  ==> Geometry <==

    Molecular point group: c1
    Full point group: D_inf_h

    Geometry (in Angstrom), charge = 0, multiplicity = 1:

       Center              X                  Y                   Z       
    ------------   -----------------  -----------------  -----------------
           H          0.000000000000     0.000000000000    -0.950000000000
           H          0.000000000000     0.000000000000     0.950000000000

  Running in c1 symmetry.

  Rotational constants: A = ************  B =      9.26689  C =      9.26689 [cm^-1]
  Rotational constants: A = ************  B = 277814.46135  C = 277814.46135 [MHz]
  Nuclear repulsion =    0.278514320310526

  Charge       = 0
  Multiplicity = 1
  Electrons    = 2
  Nalpha       = 1
  Nbeta        = 1

  ==> Algorithm <==

  SCF Algorithm Type is PK.
  DIIS enabled.
  MOM disabled.
  Fractional occupation disabled.
  Guess Type is CORE.
  Energy threshold   = 1.00e-08
  Density threshold  = 1.00e-08
  Integral threshold = 0.00e+00

  ==> Primary Basis <==

  Basis Set: CC-PVDZ
    Number of shells: 6
    Number of basis function: 10
    Number of Cartesian functions: 10
    Spherical Harmonics?: true
    Max angular momentum: 1

  ==> Pre-Iterations <==

   -------------------------------------------------------
    Irrep   Nso     Nmo     Nalpha   Nbeta   Ndocc  Nsocc
   -------------------------------------------------------
     A         10      10       0       0       0       0
   -------------------------------------------------------
    Total      10      10       1       1       1       0
   -------------------------------------------------------

  Starting with a DF guess...

 OEINTS: Overlap, kinetic, potential, dipole, and quadrupole integrals
         stored in file 35.

  ==> Integral Setup <==

  ==> DFJK: Density-Fitted J/K Matrices <==

    J tasked:                  Yes
    K tasked:                  Yes
    wK tasked:                  No
    OpenMP threads:              1
    Integrals threads:           1
    Memory (MB):               183
    Algorithm:                Core
    Integral Cache:           NONE
    Schwarz Cutoff:          1E-12
    Fitting Condition:       1E-12

   => Auxiliary Basis Set <=

  Basis Set: 
    Number of shells: 18
    Number of basis function: 46
    Number of Cartesian functions: 50
    Spherical Harmonics?: true
    Max angular momentum: 2

  Minimum eigenvalue in the overlap matrix is 2.0962876078E-01.
  Using Symmetric Orthogonalization.
  SCF Guess: Core (One-Electron) Hamiltonian.

  ==> Iterations <==

                           Total Energy        Delta E     RMS |[F,P]|

   @DF-RHF iter   1:    -0.91367311161387   -9.13673e-01   1.45259e-02 
   @DF-RHF iter   2:    -0.93524141830639   -2.15683e-02   2.49265e-03 DIIS
   @DF-RHF iter   3:    -0.93592489838558   -6.83480e-04   8.33630e-05 DIIS
   @DF-RHF iter   4:    -0.93592551110022   -6.12715e-07   4.60617e-07 DIIS
   @DF-RHF iter   5:    -0.93592551111523   -1.50107e-11   1.63090e-11 DIIS

  DF guess converged.

  ==> Integral Setup <==

 MINTS: Wrapper to libmints.
   by Justin Turney

   Calculation information:
      Number of atoms:                   2
      Number of AO shells:               6
      Number of SO shells:               6
      Number of primitives:             10
      Number of atomic orbitals:        10
      Number of basis functions:        10

      Number of irreps:                  1
      Integral cutoff                 0.00e+00
      Number of functions per irrep: [  10 ]

 OEINTS: Overlap, kinetic, potential, dipole, and quadrupole integrals
         stored in file 35.

      Computing two-electron integrals...done
      Computed 512 non-zero two-electron integrals.
        Stored in file 33.

	Batch   1 pq = [       0,      55] index = [             0,1540]
  ==> DiskJK: Disk-Based J/K Matrices <==

    J tasked:                  Yes
    K tasked:                  Yes
    wK tasked:                  No
    Memory (MB):               183
    Schwarz Cutoff:          1E-12

   @RHF iter   6:    -0.93591768081114    7.83030e-06   2.78075e-06 DIIS
   @RHF iter   7:    -0.93591768158063   -7.69485e-10   4.69722e-07 DIIS
   @RHF iter   8:    -0.93591768160468   -2.40492e-11   1.62073e-08 DIIS
   @RHF iter   9:    -0.93591768160470   -2.35367e-14   1.59793e-14 DIIS

  ==> Post-Iterations <==

    Orbital Energies (a.u.)
    -----------------------

    Doubly Occupied:                                                      

       1A     -0.394723  

    Virtual:                                                              

       2A     -0.023101     3A      0.653309     4A      0.675153  
       5A      1.306979     6A      1.445965     7A      1.445965  
       8A      1.515211     9A      1.515211    10A      1.773963  

    Final Occupation by Irrep:
              A 
    DOCC [     1 ]

  Energy converged.

  @RHF Final Energy:    -0.93591768160470

   => Energetics <=

    Nuclear Repulsion Energy =              0.2785143203105263
    One-Electron Energy =                  -1.6394188119343467
    Two-Electron Energy =                   0.4249868100191216
    DFT Exchange-Correlation Energy =       0.0000000000000000
    Empirical Dispersion Energy =           0.0000000000000000
    PCM Polarization Energy =               0.0000000000000000
    EFP Energy =                            0.0000000000000000
    Total Energy =                         -0.9359176816046988

    Alert: EFP and PCM quantities not currently incorporated into SCF psivars.

Properties will be evaluated at   0.000000,   0.000000,   0.000000 Bohr
  ==> Properties <==


Properties computed using the SCF density matrix

  Nuclear Dipole Moment: (a.u.)
     X:     0.0000      Y:     0.0000      Z:     0.0000

  Electronic Dipole Moment: (a.u.)
     X:     0.0000      Y:    -0.0000      Z:     0.0000

  Dipole Moment: (a.u.)
     X:     0.0000      Y:    -0.0000      Z:     0.0000     Total:     0.0000

  Dipole Moment: (Debye)
     X:     0.0000      Y:    -0.0000      Z:     0.0000     Total:     0.0000


  Saving occupied orbitals to File 180.

*** tstop() called on Kevins-MacBook-Pro.local at Fri Apr 10 18:02:11 2015
Module time:
	user time   =       0.20 seconds =       0.00 minutes
	system time =       0.01 seconds =       0.00 minutes
	total time  =          0 seconds =       0.00 minutes
Total time:
	user time   =       0.40 seconds =       0.01 minutes
	system time =       0.02 seconds =       0.00 minutes
	total time  =          1 seconds =       0.02 minutes
Reading options from the SCF block
Calling plugin scf.so.
    Molecular point group: c1
    Full point group: D_inf_h

    Geometry (in Angstrom), charge = 0, multiplicity = 1:

       Center              X                  Y                   Z       
    ------------   -----------------  -----------------  -----------------
           H          0.000000000000     0.000000000000    -0.950000000000
           H          0.000000000000     0.000000000000     0.950000000000


    Nuclear repulsion energy:       0.27851432

  ## Overlap (Symmetry 0) ##
  Irrep: 1 Size: 10 x 10

                 1                   2                   3                   4                   5

    1     1.00000000000000     0.68486025149275     0.00000000000000     0.00000000000000     0.00000000000000
    2     0.68486025149275     1.00000000000000     0.00000000000000     0.00000000000000     0.00000000000000
    3     0.00000000000000     0.00000000000000     1.00000000000000     0.00000000000000     0.00000000000000
    4     0.00000000000000     0.00000000000000     0.00000000000000     1.00000000000000     0.00000000000000
    5     0.00000000000000     0.00000000000000     0.00000000000000     0.00000000000000     1.00000000000000
    6     0.04018566903016     0.19432416478952     0.05253253619542     0.00000000000000     0.00000000000000
    7     0.19432416478952     0.45548878119761     0.13446640299337     0.00000000000000     0.00000000000000
    8    -0.05253253619542    -0.13446640299337    -0.07721471256399     0.00000000000000     0.00000000000000
    9     0.00000000000000     0.00000000000000     0.00000000000000     0.00922280283000     0.00000000000000
   10     0.00000000000000     0.00000000000000     0.00000000000000     0.00000000000000     0.00922280283000

                 6                   7                   8                   9                  10

    1     0.04018566903016     0.19432416478952    -0.05253253619542     0.00000000000000     0.00000000000000
    2     0.19432416478952     0.45548878119761    -0.13446640299337     0.00000000000000     0.00000000000000
    3     0.05253253619542     0.13446640299337    -0.07721471256399     0.00000000000000     0.00000000000000
    4     0.00000000000000     0.00000000000000     0.00000000000000     0.00922280283000     0.00000000000000
    5     0.00000000000000     0.00000000000000     0.00000000000000     0.00000000000000     0.00922280283000
    6     1.00000000000000     0.68486025149275    -0.00000000000000     0.00000000000000     0.00000000000000
    7     0.68486025149275     1.00000000000000     0.00000000000000     0.00000000000000     0.00000000000000
    8    -0.00000000000000     0.00000000000000     1.00000000000000     0.00000000000000     0.00000000000000
    9     0.00000000000000     0.00000000000000     0.00000000000000     1.00000000000000     0.00000000000000
   10     0.00000000000000     0.00000000000000     0.00000000000000     0.00000000000000     1.00000000000000



  ## Kinetic (Symmetry 0) ##
  Irrep: 1 Size: 10 x 10

                 1                   2                   3                   4                   5

    1     0.96945722711242     0.20123413106538     0.00000000000000     0.00000000000000     0.00000000000000
    2     0.20123413106538     0.18300000000000     0.00000000000000     0.00000000000000     0.00000000000000
    3     0.00000000000000     0.00000000000000     1.81750000000000     0.00000000000000     0.00000000000000
    4     0.00000000000000     0.00000000000000     0.00000000000000     1.81750000000000     0.00000000000000
    5     0.00000000000000     0.00000000000000     0.00000000000000     0.00000000000000     1.81750000000000
    6    -0.02867082670519     0.00905513474755    -0.03447537303067     0.00000000000000     0.00000000000000
    7     0.00905513474755     0.03965536733208     0.03240026294058     0.00000000000000     0.00000000000000
    8     0.03447537303067    -0.03240026294058     0.05987552895569     0.00000000000000     0.00000000000000
    9     0.00000000000000     0.00000000000000     0.00000000000000    -0.01465759270219     0.00000000000000
   10     0.00000000000000     0.00000000000000     0.00000000000000     0.00000000000000    -0.01465759270219

                 6                   7                   8                   9                  10

    1    -0.02867082670519     0.00905513474755     0.03447537303067     0.00000000000000     0.00000000000000
    2     0.00905513474755     0.03965536733208    -0.03240026294058     0.00000000000000     0.00000000000000
    3    -0.03447537303067     0.03240026294058     0.05987552895569     0.00000000000000     0.00000000000000
    4     0.00000000000000     0.00000000000000     0.00000000000000    -0.01465759270219     0.00000000000000
    5     0.00000000000000     0.00000000000000     0.00000000000000     0.00000000000000    -0.01465759270219
    6     0.96945722711242     0.20123413106538    -0.00000000000000     0.00000000000000     0.00000000000000
    7     0.20123413106538     0.18300000000000     0.00000000000000     0.00000000000000     0.00000000000000
    8    -0.00000000000000     0.00000000000000     1.81750000000000     0.00000000000000     0.00000000000000
    9     0.00000000000000     0.00000000000000     0.00000000000000     1.81750000000000     0.00000000000000
   10     0.00000000000000     0.00000000000000     0.00000000000000     0.00000000000000     1.81750000000000



  ## Potential (Symmetry 0) ##
  Irrep: 1 Size: 10 x 10

                 1                   2                   3                   4                   5

    1    -1.65637579459968    -0.84042824465846    -0.04880130427360     0.00000000000000     0.00000000000000
    2    -0.84042824465846    -0.83251280980985    -0.04577505228158     0.00000000000000     0.00000000000000
    3    -0.04880130427360    -0.04577505228158    -1.20045378046780     0.00000000000000     0.00000000000000
    4     0.00000000000000     0.00000000000000     0.00000000000000    -1.17816587611754     0.00000000000000
    5     0.00000000000000     0.00000000000000     0.00000000000000     0.00000000000000    -1.17816587611754
    6    -0.04546867111245    -0.23192774388474    -0.05747266384739     0.00000000000000     0.00000000000000
    7    -0.23192774388474    -0.40097680021752    -0.14913839449276     0.00000000000000     0.00000000000000
    8     0.05747266384739     0.14913839449276     0.08392518762044     0.00000000000000     0.00000000000000
    9     0.00000000000000     0.00000000000000     0.00000000000000    -0.00918290326230     0.00000000000000
   10     0.00000000000000     0.00000000000000     0.00000000000000     0.00000000000000    -0.00918290326230

                 6                   7                   8                   9                  10

    1    -0.04546867111245    -0.23192774388474     0.05747266384739     0.00000000000000     0.00000000000000
    2    -0.23192774388474    -0.40097680021752     0.14913839449276     0.00000000000000     0.00000000000000
    3    -0.05747266384739    -0.14913839449276     0.08392518762044     0.00000000000000     0.00000000000000
    4     0.00000000000000     0.00000000000000     0.00000000000000    -0.00918290326230     0.00000000000000
    5     0.00000000000000     0.00000000000000     0.00000000000000     0.00000000000000    -0.00918290326230
    6    -1.65637579459968    -0.84042824465846     0.04880130427360     0.00000000000000     0.00000000000000
    7    -0.84042824465846    -0.83251280980985     0.04577505228158     0.00000000000000     0.00000000000000
    8     0.04880130427360     0.04577505228158    -1.20045378046780     0.00000000000000     0.00000000000000
    9     0.00000000000000     0.00000000000000     0.00000000000000    -1.17816587611754     0.00000000000000
   10     0.00000000000000     0.00000000000000     0.00000000000000     0.00000000000000    -1.17816587611754



  ## One Electron Ints (Symmetry 0) ##
  Irrep: 1 Size: 10 x 10

                 1                   2                   3                   4                   5

    1    -0.68691856748726    -0.63919411359307    -0.04880130427360     0.00000000000000     0.00000000000000
    2    -0.63919411359307    -0.64951280980985    -0.04577505228158     0.00000000000000     0.00000000000000
    3    -0.04880130427360    -0.04577505228158     0.61704621953220     0.00000000000000     0.00000000000000
    4     0.00000000000000     0.00000000000000     0.00000000000000     0.63933412388247     0.00000000000000
    5     0.00000000000000     0.00000000000000     0.00000000000000     0.00000000000000     0.63933412388247
    6    -0.07413949781764    -0.22287260913720    -0.09194803687806     0.00000000000000     0.00000000000000
    7    -0.22287260913720    -0.36132143288544    -0.11673813155219     0.00000000000000     0.00000000000000
    8     0.09194803687806     0.11673813155219     0.14380071657613     0.00000000000000     0.00000000000000
    9     0.00000000000000     0.00000000000000     0.00000000000000    -0.02384049596449     0.00000000000000
   10     0.00000000000000     0.00000000000000     0.00000000000000     0.00000000000000    -0.02384049596449

                 6                   7                   8                   9                  10

    1    -0.07413949781764    -0.22287260913720     0.09194803687806     0.00000000000000     0.00000000000000
    2    -0.22287260913720    -0.36132143288544     0.11673813155219     0.00000000000000     0.00000000000000
    3    -0.09194803687806    -0.11673813155219     0.14380071657613     0.00000000000000     0.00000000000000
    4     0.00000000000000     0.00000000000000     0.00000000000000    -0.02384049596449     0.00000000000000
    5     0.00000000000000     0.00000000000000     0.00000000000000     0.00000000000000    -0.02384049596449
    6    -0.68691856748726    -0.63919411359307     0.04880130427360     0.00000000000000     0.00000000000000
    7    -0.63919411359307    -0.64951280980985     0.04577505228158     0.00000000000000     0.00000000000000
    8     0.04880130427360     0.04577505228158     0.61704621953220     0.00000000000000     0.00000000000000
    9     0.00000000000000     0.00000000000000     0.00000000000000     0.63933412388247     0.00000000000000
   10     0.00000000000000     0.00000000000000     0.00000000000000     0.00000000000000     0.63933412388247




	There are 0 unique integrals

  ## Fock (Symmetry 0) ##
  Irrep: 1 Size: 10 x 10

                 1                   2                   3                   4                   5

    1    -0.44951110931315    -0.36085397401594    -0.05568526682042     0.00000000000000     0.00000000000000
    2    -0.36085397401594    -0.32096789656160     0.04856128903273     0.00000000000000     0.00000000000000
    3    -0.05568526682042     0.04856128903273     0.65996674537338     0.00000000000000     0.00000000000000
    4     0.00000000000000     0.00000000000000     0.00000000000000     0.63960840522593     0.00000000000000
    5     0.00000000000000     0.00000000000000     0.00000000000000     0.00000000000000     0.63960840522593
    6     0.01528712543744    -0.02788158673255    -0.01097507200589     0.00000000000000     0.00000000000000
    7    -0.02788158673255    -0.10591965284186    -0.14585091170570    -0.00000000000000     0.00000000000000
    8     0.01097507200589     0.14585091170570     0.20410095365366     0.00000000000000     0.00000000000000
    9     0.00000000000000    -0.00000000000000     0.00000000000000    -0.02973947817430     0.00000000000000
   10     0.00000000000000     0.00000000000000     0.00000000000000     0.00000000000000    -0.02973947817430

                 6                   7                   8                   9                  10

    1     0.01528712543744    -0.02788158673255     0.01097507200589     0.00000000000000     0.00000000000000
    2    -0.02788158673255    -0.10591965284186     0.14585091170570    -0.00000000000000     0.00000000000000
    3    -0.01097507200589    -0.14585091170570     0.20410095365366     0.00000000000000     0.00000000000000
    4     0.00000000000000    -0.00000000000000     0.00000000000000    -0.02973947817430     0.00000000000000
    5     0.00000000000000     0.00000000000000     0.00000000000000     0.00000000000000    -0.02973947817430
    6    -0.44951110931315    -0.36085397401594     0.05568526682042     0.00000000000000     0.00000000000000
    7    -0.36085397401594    -0.32096789656160    -0.04856128903273    -0.00000000000000     0.00000000000000
    8     0.05568526682042    -0.04856128903273     0.65996674537338     0.00000000000000     0.00000000000000
    9     0.00000000000000    -0.00000000000000     0.00000000000000     0.63960840522593     0.00000000000000
   10     0.00000000000000     0.00000000000000     0.00000000000000     0.00000000000000     0.63960840522593



  ## C (Symmetry 0) ##
  Irrep: 1 Size: 10 x 10

                 1                   2                   3                   4                   5

    1     0.32666436640613     0.42289585298357     0.10081606029419    -0.00104369432079    -0.03093238205968
    2     0.57531404340658     0.29641491066154    -0.08516052886999    -0.10009352011033     0.24979186251845
    3     0.52633872838618    -0.49185252526824    -0.03281646993886    -0.04537531754818     0.06916113805066
    4    -0.40726018768772     0.56002738513741    -0.14331911052803    -0.00000000000000     0.00326092657291
    5     0.02314628769835     0.06701314533854    -0.70042807146360     0.00000000000000     0.00000000000000
    6     0.04614784429561     0.01861466812819    -0.00074491816357    -0.91797769329572     0.38359760687068
    7    -0.23036401381893    -0.07417894738079     0.01793231382785     0.41362978820282    -1.01365064045685
    8     0.06814401306175     0.00809682492431    -0.00599373500123    -0.72210599188147     0.03003218133214
    9     0.00187808014404    -0.00258256599576     0.00066091600378    -0.00000000000000    -0.70712933754853
   10     0.05559892219264    -0.13678421992503    -0.68834935360405    -0.00000000000000     0.00000000000000

                 6                   7                   8                   9                  10

    1     0.95092434315241     0.86729232155055    -0.06340274521006    -0.02968566014364    -0.03093238205968
    2    -1.07428312275554    -0.87789576519088    -0.01370356756172     0.03822875599098     0.24979186251844
    3     0.47746488641156    -0.52664470094484     0.02988734983300     0.01673335172533     0.06916113805066
    4     0.40726018768772    -0.56002738513741    -0.14331911052803    -0.00000000000000    -0.00326092657291
    5     0.02366007188064     0.06575440804538     0.70680664298837     0.00000000000000     0.00000000000000
    6    -0.00419096845874    -0.01722038690207    -0.00227200096098    -0.90510224886565     0.38359760687068
    7     0.17614285560412     0.21520404039522     0.00643056406936     0.35356542553854    -1.01365064045685
    8    -0.04440760263643    -0.07202610848635    -0.00075173838838     0.70923054745141     0.03003218133214
    9    -0.00187808014404     0.00258256599576     0.00066091600378    -0.00000000000000     0.70712933754853
   10    -0.05581476969554     0.13617196242154    -0.69483881575901    -0.00000000000000     0.00000000000000




 In Bisection function HOMO = -0.830  LUMO =  0.906

 0.03814 = (-0.82975 + 0.90603)/2.0
 sum -  nocc_ = 3.00000000
 On Iteration in Bisection 0
 a: 3.00000  b:-0.50000

 -0.39580 = (-0.82975 + 0.03814)/2.0
 sum -  nocc_ = 1.00000000
 On Iteration in Bisection 1
 a: 1.00000  b:-0.50000

 -0.61278 = (-0.82975 + -0.39580)/2.0
 sum -  nocc_ = 1.00000000
 On Iteration in Bisection 2
 a: 1.00000  b:-0.50000

 -0.72126 = (-0.82975 + -0.61278)/2.0
 sum -  nocc_ = 0.00000000
 ef = -0.72126 sum = 1.00000 

 Iter: 0  T:      100.000  val:-0.721263  sumni 0.00000
 ne = 1.0000

Nuc Replusion =       0.278514320311
 1st iteration =      -0.303427641339
 In Bisection function HOMO = -0.190  LUMO =  1.912

 0.86121 = (-0.18974 + 1.91217)/2.0
 sum -  nocc_ = 2.00000000
 On Iteration in Bisection 0
 a: 2.00000  b:-0.50000

 0.33574 = (-0.18974 + 0.86121)/2.0
 sum -  nocc_ = 1.00000000
 On Iteration in Bisection 1
 a: 1.00000  b:-0.50000

 0.07300 = (-0.18974 + 0.33574)/2.0
 sum -  nocc_ = 1.00000000
 On Iteration in Bisection 2
 a: 1.00000  b:-0.50000

 -0.05837 = (-0.18974 + 0.07300)/2.0
 sum -  nocc_ = 0.00000000
 ef = -0.05837 sum = 1.00000 

 Iter: 0  T:      100.000  val:-0.058373  sumni 0.00000
 ne = 1.0000

 iter:1  failiter:1  energy:     -0.974463314579  total:     -0.695948994269  error:     -0.038545632975
 In Bisection function HOMO = -0.335  LUMO =  1.899

 0.78201 = (-0.33467 + 1.89869)/2.0
 sum -  nocc_ = 2.00000000
 On Iteration in Bisection 0
 a: 2.00000  b:-0.50000

 0.22367 = (-0.33467 + 0.78201)/2.0
 sum -  nocc_ = 1.00000000
 On Iteration in Bisection 1
 a: 1.00000  b:-0.50000

 -0.05550 = (-0.33467 + 0.22367)/2.0
 sum -  nocc_ = 1.00000000
 On Iteration in Bisection 2
 a: 1.00000  b:-0.50000

 -0.19508 = (-0.33467 + -0.05550)/2.0
 sum -  nocc_ = 0.00000000
 ef = -0.19508 sum = 1.00000 

 Iter: 1  T:      100.000  val:-0.195082  sumni 0.00000
 ne = 1.0000

 iter:2  failiter:2  energy:     -1.152901152164  total:     -0.874386831853  error:     -0.178437837584
 In Bisection function HOMO = -0.388  LUMO =  1.795

 0.70350 = (-0.38759 + 1.79459)/2.0
 sum -  nocc_ = 2.00000000
 On Iteration in Bisection 0
 a: 2.00000  b:-0.50000

 0.15796 = (-0.38759 + 0.70350)/2.0
 sum -  nocc_ = 1.00000000
 On Iteration in Bisection 1
 a: 1.00000  b:-0.50000

 -0.11482 = (-0.38759 + 0.15796)/2.0
 sum -  nocc_ = 0.00000000
 ef = -0.11482 sum = 1.00000 

 Iter: 2  T:      100.000  val:-0.114816  sumni 0.00000
 ne = 1.0000

 iter:3  failiter:3  energy:     -1.207498912822  total:     -0.928984592511  error:     -0.054597760658
 In Bisection function HOMO = -0.394  LUMO =  1.776

 0.69078 = (-0.39410 + 1.77567)/2.0
 sum -  nocc_ = 3.00000000
 On Iteration in Bisection 0
 a: 3.00000  b:-0.50000

 0.14834 = (-0.39410 + 0.69078)/2.0
 sum -  nocc_ = 1.00000000
 On Iteration in Bisection 1
 a: 1.00000  b:-0.50000

 -0.12288 = (-0.39410 + 0.14834)/2.0
 sum -  nocc_ = 0.00000000
 ef = -0.12288 sum = 1.00000 

 Iter: 3  T:      100.000  val:-0.122882  sumni 0.00000
 ne = 1.0000

 iter:4  failiter:4  energy:     -1.213892015333  total:     -0.935377695022  error:     -0.006393102511
 In Bisection function HOMO = -0.395  LUMO =  1.774

 0.68979 = (-0.39463 + 1.77420)/2.0
 sum -  nocc_ = 3.00000000
 On Iteration in Bisection 0
 a: 3.00000  b:-0.50000

 0.14758 = (-0.39463 + 0.68979)/2.0
 sum -  nocc_ = 1.00000000
 On Iteration in Bisection 1
 a: 1.00000  b:-0.50000

 -0.12352 = (-0.39463 + 0.14758)/2.0
 sum -  nocc_ = 0.00000000
 ef = -0.12352 sum = 1.00000 

 Iter: 4  T:      100.000  val:-0.123523  sumni 0.00000
 ne = 1.0000

 iter:5  failiter:5  energy:     -1.214354550904  total:     -0.935840230593  error:     -0.000462535571
 In Bisection function HOMO = -0.395  LUMO =  1.774

 0.68965 = (-0.39470 + 1.77401)/2.0
 sum -  nocc_ = 3.00000000
 On Iteration in Bisection 0
 a: 3.00000  b:-0.50000

 0.14747 = (-0.39470 + 0.68965)/2.0
 sum -  nocc_ = 1.00000000
 On Iteration in Bisection 1
 a: 1.00000  b:-0.50000

 -0.12361 = (-0.39470 + 0.14747)/2.0
 sum -  nocc_ = 0.00000000
 ef = -0.12361 sum = 1.00000 

 Iter: 5  T:      100.000  val:-0.123615  sumni 0.00000
 ne = 1.0000

 iter:6  failiter:6  energy:     -1.214416929401  total:     -0.935902609091  error:     -0.000062378498
 In Bisection function HOMO = -0.395  LUMO =  1.774

 0.68963 = (-0.39472 + 1.77397)/2.0
 sum -  nocc_ = 3.00000000
 On Iteration in Bisection 0
 a: 3.00000  b:-0.50000

 0.14745 = (-0.39472 + 0.68963)/2.0
 sum -  nocc_ = 1.00000000
 On Iteration in Bisection 1
 a: 1.00000  b:-0.50000

 -0.12363 = (-0.39472 + 0.14745)/2.0
 sum -  nocc_ = 0.00000000
 ef = -0.12363 sum = 1.00000 

 Iter: 6  T:      100.000  val:-0.123632  sumni 0.00000
 ne = 1.0000

 iter:7  failiter:7  energy:     -1.214428891722  total:     -0.935914571412  error:     -0.000011962321
 In Bisection function HOMO = -0.395  LUMO =  1.774

 0.68962 = (-0.39472 + 1.77396)/2.0
 sum -  nocc_ = 3.00000000
 On Iteration in Bisection 0
 a: 3.00000  b:-0.50000

 0.14745 = (-0.39472 + 0.68962)/2.0
 sum -  nocc_ = 1.00000000
 On Iteration in Bisection 1
 a: 1.00000  b:-0.50000

 -0.12364 = (-0.39472 + 0.14745)/2.0
 sum -  nocc_ = 0.00000000
 ef = -0.12364 sum = 1.00000 

 Iter: 7  T:      100.000  val:-0.123636  sumni 0.00000
 ne = 1.0000

 iter:8  failiter:8  energy:     -1.214431370712  total:     -0.935917050401  error:     -0.000002478990
 In Bisection function HOMO = -0.395  LUMO =  1.774

 0.68962 = (-0.39472 + 1.77396)/2.0
 sum -  nocc_ = 3.00000000
 On Iteration in Bisection 0
 a: 3.00000  b:-0.50000

 0.14745 = (-0.39472 + 0.68962)/2.0
 sum -  nocc_ = 1.00000000
 On Iteration in Bisection 1
 a: 1.00000  b:-0.50000

 -0.12364 = (-0.39472 + 0.14745)/2.0
 sum -  nocc_ = 0.00000000
 ef = -0.12364 sum = 1.00000 

 Iter: 8  T:      100.000  val:-0.123637  sumni 0.00000
 ne = 1.0000

 iter:9  failiter:9  energy:     -1.214431876032  total:     -0.935917555722  error:     -0.000000505320
 In Bisection function HOMO = -0.395  LUMO =  1.774

 0.68962 = (-0.39472 + 1.77396)/2.0
 sum -  nocc_ = 3.00000000
 On Iteration in Bisection 0
 a: 3.00000  b:-0.50000

 0.14745 = (-0.39472 + 0.68962)/2.0
 sum -  nocc_ = 1.00000000
 On Iteration in Bisection 1
 a: 1.00000  b:-0.50000

 -0.12364 = (-0.39472 + 0.14745)/2.0
 sum -  nocc_ = 0.00000000
 ef = -0.12364 sum = 1.00000 

 Iter: 9  T:      100.000  val:-0.123637  sumni 0.00000
 ne = 1.0000

 iter:10  failiter:10  energy:     -1.214431977149  total:     -0.935917656839  error:     -0.000000101117
 In Bisection function HOMO = -0.395  LUMO =  1.774

 0.68962 = (-0.39472 + 1.77396)/2.0
 sum -  nocc_ = 3.00000000
 On Iteration in Bisection 0
 a: 3.00000  b:-0.50000

 0.14745 = (-0.39472 + 0.68962)/2.0
 sum -  nocc_ = 1.00000000
 On Iteration in Bisection 1
 a: 1.00000  b:-0.50000

 -0.12364 = (-0.39472 + 0.14745)/2.0
 sum -  nocc_ = 0.00000000
 ef = -0.12364 sum = 1.00000 

 Iter: 10  T:      100.000  val:-0.123637  sumni 0.00000
 ne = 1.0000

 iter:11  failiter:11  energy:     -1.214431997088  total:     -0.935917676778  error:     -0.000000019939
 In Bisection function HOMO = -0.395  LUMO =  1.774

 0.68962 = (-0.39472 + 1.77396)/2.0
 sum -  nocc_ = 3.00000000
 On Iteration in Bisection 0
 a: 3.00000  b:-0.50000

 0.14745 = (-0.39472 + 0.68962)/2.0
 sum -  nocc_ = 1.00000000
 On Iteration in Bisection 1
 a: 1.00000  b:-0.50000

 -0.12364 = (-0.39472 + 0.14745)/2.0
 sum -  nocc_ = 0.00000000
 ef = -0.12364 sum = 1.00000 

 Iter: 11  T:      100.000  val:-0.123637  sumni 0.00000
 ne = 1.0000

 iter:12  failiter:12  energy:     -1.214432000981  total:     -0.935917680670  error:     -0.000000003892
 In Bisection function HOMO = -0.395  LUMO =  1.774

 0.68962 = (-0.39472 + 1.77396)/2.0
 sum -  nocc_ = 3.00000000
 On Iteration in Bisection 0
 a: 3.00000  b:-0.50000

 0.14745 = (-0.39472 + 0.68962)/2.0
 sum -  nocc_ = 1.00000000
 On Iteration in Bisection 1
 a: 1.00000  b:-0.50000

 -0.12364 = (-0.39472 + 0.14745)/2.0
 sum -  nocc_ = 0.00000000
 ef = -0.12364 sum = 1.00000 

 Iter: 12  T:      100.000  val:-0.123637  sumni 0.00000
 ne = 1.0000

 iter:13  failiter:13  energy:     -1.214432001735  total:     -0.935917681425  error:     -0.000000000755
 In Bisection function HOMO = -0.395  LUMO =  1.774

 0.68962 = (-0.39472 + 1.77396)/2.0
 sum -  nocc_ = 3.00000000
 On Iteration in Bisection 0
 a: 3.00000  b:-0.50000

 0.14745 = (-0.39472 + 0.68962)/2.0
 sum -  nocc_ = 1.00000000
 On Iteration in Bisection 1
 a: 1.00000  b:-0.50000

 -0.12364 = (-0.39472 + 0.14745)/2.0
 sum -  nocc_ = 0.00000000
 ef = -0.12364 sum = 1.00000 

 Iter: 13  T:      100.000  val:-0.123637  sumni 0.00000
 ne = 1.0000

 iter:14  failiter:14  energy:     -1.214432001881  total:     -0.935917681570  error:     -0.000000000146
 In Bisection function HOMO = -0.395  LUMO =  1.774

 0.68962 = (-0.39472 + 1.77396)/2.0
 sum -  nocc_ = 3.00000000
 On Iteration in Bisection 0
 a: 3.00000  b:-0.50000

 0.14745 = (-0.39472 + 0.68962)/2.0
 sum -  nocc_ = 1.00000000
 On Iteration in Bisection 1
 a: 1.00000  b:-0.50000

 -0.12364 = (-0.39472 + 0.14745)/2.0
 sum -  nocc_ = 0.00000000
 ef = -0.12364 sum = 1.00000 

 Iter: 14  T:      100.000  val:-0.123637  sumni 0.00000
 ne = 1.0000

 iter:15  failiter:15  energy:     -1.214432001909  total:     -0.935917681598  error:     -0.000000000028
 In Bisection function HOMO = -0.395  LUMO =  1.774

 0.68962 = (-0.39472 + 1.77396)/2.0
 sum -  nocc_ = 3.00000000
 On Iteration in Bisection 0
 a: 3.00000  b:-0.50000

 0.14745 = (-0.39472 + 0.68962)/2.0
 sum -  nocc_ = 1.00000000
 On Iteration in Bisection 1
 a: 1.00000  b:-0.50000

 -0.12364 = (-0.39472 + 0.14745)/2.0
 sum -  nocc_ = 0.00000000
 ef = -0.12364 sum = 1.00000 

 Iter: 15  T:      100.000  val:-0.123637  sumni 0.00000
 ne = 1.0000

 iter:16  failiter:16  energy:     -1.214432001914  total:     -0.935917681603  error:     -0.000000000005
 In Bisection function HOMO = -0.395  LUMO =  1.774

 0.68962 = (-0.39472 + 1.77396)/2.0
 sum -  nocc_ = 3.00000000
 On Iteration in Bisection 0
 a: 3.00000  b:-0.50000

 0.14745 = (-0.39472 + 0.68962)/2.0
 sum -  nocc_ = 1.00000000
 On Iteration in Bisection 1
 a: 1.00000  b:-0.50000

 -0.12364 = (-0.39472 + 0.14745)/2.0
 sum -  nocc_ = 0.00000000
 ef = -0.12364 sum = 1.00000 

 Iter: 16  T:      100.000  val:-0.123637  sumni 0.00000
 ne = 1.0000

 iter:17  failiter:17  energy:     -1.214432001915  total:     -0.935917681604  error:     -0.000000000001
 In Bisection function HOMO = -0.395  LUMO =  1.774

 0.68962 = (-0.39472 + 1.77396)/2.0
 sum -  nocc_ = 3.00000000
 On Iteration in Bisection 0
 a: 3.00000  b:-0.50000

 0.14745 = (-0.39472 + 0.68962)/2.0
 sum -  nocc_ = 1.00000000
 On Iteration in Bisection 1
 a: 1.00000  b:-0.50000

 -0.12364 = (-0.39472 + 0.14745)/2.0
 sum -  nocc_ = 0.00000000
 ef = -0.12364 sum = 1.00000 

 Iter: 17  T:      100.000  val:-0.123637  sumni 0.00000
 ne = 1.0000

 iter:18  failiter:18  energy:     -1.214432001915  total:     -0.935917681605  error:     -0.000000000000
 FTHFEnergy =    -0.935918
 FD_dis[0] = 1.00000000 with -0.394723 eig value
 FD_dis[1] = 0.00000000 with -0.023101 eig value
 FD_dis[2] = 0.00000000 with 0.653309 eig value
 FD_dis[3] = 0.00000000 with 0.675153 eig value
 FD_dis[4] = 0.00000000 with 1.306979 eig value
 FD_dis[5] = 0.00000000 with 1.445965 eig value
 FD_dis[6] = 0.00000000 with 1.445965 eig value
 FD_dis[7] = 0.00000000 with 1.515211 eig value
 FD_dis[8] = 0.00000000 with 1.515211 eig value
 FD_dis[9] = 0.00000000 with 1.773963 eig value
*** PSI4 exiting successfully. Buy a developer a beer!
