    -----------------------------------------------------------------------
          PSI4: An Open-Source Ab Initio Electronic Structure Package
                              PSI 4.0 Driver

               Git: Rev {master} 556e8139d3cfa1f96ccffe2cdf22cc56a185d2b2

    J. M. Turney, A. C. Simmonett, R. M. Parrish, E. G. Hohenstein,
    F. A. Evangelista, J. T. Fermann, B. J. Mintz, L. A. Burns, J. J. Wilke,
    M. L. Abrams, N. J. Russ, M. L. Leininger, C. L. Janssen, E. T. Seidl,
    W. D. Allen, H. F. Schaefer, R. A. King, E. F. Valeev, C. D. Sherrill,
    and T. D. Crawford, WIREs Comput. Mol. Sci. 2, 556-565 (2012)
    (doi: 10.1002/wcms.93)

                         Additional Contributions by
    A. E. DePrince, M. Saitow, U. Bozkaya, A. Yu. Sokolov
    -----------------------------------------------------------------------

    Process ID:  11992
    PSI4DATADIR: /Users/kevinhannon/Programs/psi4cmake/psi4/lib
    Memory level set to 256.000 MB

  ==> Input File <==

--------------------------------------------------------------------------

# PYTHONPATH must include directory above plugin directory.
#     Define either externally or here, then import plugin.
sys.path.insert(0, '/Users/kevinhannon/Programs/Quantum_Programs/Quantum-Programs/GS/')
import scf

molecule {
0 1
H
O 1 1.2
H 2 1.2 1 104.5
symmetry c1
units angstrom
}


set {
  basis cc-pvdz
  reference rhf
  scf_type  pk
}

set scf {
  print 1
  DO_FTHF true
  MAX_ITER 200
  MAX_TEMP 10000
  TEMP_INCREMENT 0
  bisect  true
  bisect_iter  40
}
energy('rhf')
energy('scf')

scf.exampleFN()

--------------------------------------------------------------------------

*** tstart() called on Kevins-MacBook-Pro.local
*** at Fri Apr 10 18:09:19 2015

/Users/kevinhannon/Programs/Quantum_Programs/Quantum-Programs/GS/scf/scf.so loaded.

*** tstart() called on Kevins-MacBook-Pro.local
*** at Fri Apr 10 18:09:19 2015


         ---------------------------------------------------------
                                   SCF
            by Justin Turney, Rob Parrish, and Andy Simmonett
                              RHF Reference
                        1 Threads,    256 MiB Core
         ---------------------------------------------------------

  ==> Geometry <==

    Molecular point group: c1
    Full point group: C2v

    Geometry (in Angstrom), charge = 0, multiplicity = 1:

       Center              X                  Y                   Z       
    ------------   -----------------  -----------------  -----------------
           H          0.000000000000     0.948827488493    -0.652441272869
           O          0.000000000000     0.000000000000     0.082219463172
           H          0.000000000000    -0.948827488493    -0.652441272869

  Running in c1 symmetry.

  Rotational constants: A =     17.44830  B =      9.28981  C =      6.06219 [cm^-1]
  Rotational constants: A = 523086.85129  B = 278501.50283  C = 181739.75887 [MHz]
  Nuclear repulsion =    7.334554608310059

  Charge       = 0
  Multiplicity = 1
  Electrons    = 10
  Nalpha       = 5
  Nbeta        = 5

  ==> Algorithm <==

  SCF Algorithm Type is PK.
  DIIS enabled.
  MOM disabled.
  Fractional occupation disabled.
  Guess Type is CORE.
  Energy threshold   = 1.00e-06
  Density threshold  = 1.00e-06
  Integral threshold = 0.00e+00

  ==> Primary Basis <==

  Basis Set: CC-PVDZ
    Number of shells: 12
    Number of basis function: 24
    Number of Cartesian functions: 25
    Spherical Harmonics?: true
    Max angular momentum: 2

  ==> Pre-Iterations <==

   -------------------------------------------------------
    Irrep   Nso     Nmo     Nalpha   Nbeta   Ndocc  Nsocc
   -------------------------------------------------------
     A         24      24       0       0       0       0
   -------------------------------------------------------
    Total      24      24       5       5       5       0
   -------------------------------------------------------

  Starting with a DF guess...

 OEINTS: Overlap, kinetic, potential, dipole, and quadrupole integrals
         stored in file 35.

  ==> Integral Setup <==

  ==> DFJK: Density-Fitted J/K Matrices <==

    J tasked:                  Yes
    K tasked:                  Yes
    wK tasked:                  No
    OpenMP threads:              1
    Integrals threads:           1
    Memory (MB):               183
    Algorithm:                Core
    Integral Cache:           NONE
    Schwarz Cutoff:          1E-12
    Fitting Condition:       1E-12

   => Auxiliary Basis Set <=

  Basis Set: 
    Number of shells: 42
    Number of basis function: 116
    Number of Cartesian functions: 131
    Spherical Harmonics?: true
    Max angular momentum: 3

  Minimum eigenvalue in the overlap matrix is 5.7122925900E-02.
  Using Symmetric Orthogonalization.
  SCF Guess: Core (One-Electron) Hamiltonian.

  ==> Iterations <==

                           Total Energy        Delta E     RMS |[F,P]|

   @DF-RHF iter   1:   -68.96436964445486   -6.89644e+01   1.11733e-01 
   @DF-RHF iter   2:   -69.39109785262843   -4.26728e-01   1.07431e-01 DIIS
   @DF-RHF iter   3:   -75.76804380042915   -6.37695e+00   2.64293e-02 DIIS
   @DF-RHF iter   4:   -75.92725960371946   -1.59216e-01   6.71583e-03 DIIS
   @DF-RHF iter   5:   -75.94279692631635   -1.55373e-02   1.05382e-03 DIIS
   @DF-RHF iter   6:   -75.94322879222368   -4.31866e-04   7.13541e-04 DIIS
   @DF-RHF iter   7:   -75.94335888293737   -1.30091e-04   6.95806e-05 DIIS
   @DF-RHF iter   8:   -75.94336162715250   -2.74422e-06   3.39825e-05 DIIS
   @DF-RHF iter   9:   -75.94336189553553   -2.68383e-07   2.62944e-06 DIIS
   @DF-RHF iter  10:   -75.94336190253640   -7.00086e-09   1.36154e-06 DIIS
   @DF-RHF iter  11:   -75.94336190345996   -9.23563e-10   2.18348e-07 DIIS

  DF guess converged.

  ==> Integral Setup <==

 MINTS: Wrapper to libmints.
   by Justin Turney

   Calculation information:
      Number of atoms:                   3
      Number of AO shells:              12
      Number of SO shells:              12
      Number of primitives:             32
      Number of atomic orbitals:        25
      Number of basis functions:        24

      Number of irreps:                  1
      Integral cutoff                 0.00e+00
      Number of functions per irrep: [  24 ]

 OEINTS: Overlap, kinetic, potential, dipole, and quadrupole integrals
         stored in file 35.

      Computing two-electron integrals...done
      Computed 22039 non-zero two-electron integrals.
        Stored in file 33.

	Batch   1 pq = [       0,     300] index = [             0,45150]
  ==> DiskJK: Disk-Based J/K Matrices <==

    J tasked:                  Yes
    K tasked:                  Yes
    wK tasked:                  No
    Memory (MB):               183
    Schwarz Cutoff:          1E-12

   @RHF iter  12:   -75.94337375097216   -1.18475e-05   7.89504e-06 DIIS
   @RHF iter  13:   -75.94337376654273   -1.55706e-08   1.33598e-06 DIIS
   @RHF iter  14:   -75.94337376706245   -5.19719e-10   5.47399e-07 DIIS

  ==> Post-Iterations <==

    Orbital Energies (a.u.)
    -----------------------

    Doubly Occupied:                                                      

       1A    -20.590308     2A     -1.249290     3A     -0.590965  
       4A     -0.523442     5A     -0.485264  

    Virtual:                                                              

       6A      0.133920     7A      0.204445     8A      0.669263  
       9A      0.689580    10A      1.170363    11A      1.174926  
      12A      1.280251    13A      1.442900    14A      1.504006  
      15A      1.655265    16A      1.739232    17A      1.839735  
      18A      1.976359    19A      2.119656    20A      3.107230  
      21A      3.138458    22A      3.214457    23A      3.620425  
      24A      3.858931  

    Final Occupation by Irrep:
              A 
    DOCC [     5 ]

  Energy converged.

  @RHF Final Energy:   -75.94337376706245

   => Energetics <=

    Nuclear Repulsion Energy =              7.3345546083100590
    One-Electron Energy =                -119.6773596698971858
    Two-Electron Energy =                  36.3994312945246890
    DFT Exchange-Correlation Energy =       0.0000000000000000
    Empirical Dispersion Energy =           0.0000000000000000
    PCM Polarization Energy =               0.0000000000000000
    EFP Energy =                            0.0000000000000000
    Total Energy =                        -75.9433737670624396

    Alert: EFP and PCM quantities not currently incorporated into SCF psivars.

Properties will be evaluated at   0.000000,   0.000000,   0.000000 Bohr
  ==> Properties <==


Properties computed using the SCF density matrix

  Nuclear Dipole Moment: (a.u.)
     X:     0.0000      Y:     0.0000      Z:    -1.2229

  Electronic Dipole Moment: (a.u.)
     X:     0.0000      Y:    -0.0000      Z:     0.3523

  Dipole Moment: (a.u.)
     X:     0.0000      Y:    -0.0000      Z:    -0.8706     Total:     0.8706

  Dipole Moment: (Debye)
     X:     0.0000      Y:    -0.0000      Z:    -2.2129     Total:     2.2129


  Saving occupied orbitals to File 180.

*** tstop() called on Kevins-MacBook-Pro.local at Fri Apr 10 18:09:20 2015
Module time:
	user time   =       0.30 seconds =       0.01 minutes
	system time =       0.01 seconds =       0.00 minutes
	total time  =          1 seconds =       0.02 minutes
Total time:
	user time   =       0.31 seconds =       0.01 minutes
	system time =       0.02 seconds =       0.00 minutes
	total time  =          1 seconds =       0.02 minutes

*** tstart() called on Kevins-MacBook-Pro.local
*** at Fri Apr 10 18:09:20 2015


         ---------------------------------------------------------
                                   SCF
            by Justin Turney, Rob Parrish, and Andy Simmonett
                              RHF Reference
                        1 Threads,    256 MiB Core
         ---------------------------------------------------------

  ==> Geometry <==

    Molecular point group: c1
    Full point group: C2v

    Geometry (in Angstrom), charge = 0, multiplicity = 1:

       Center              X                  Y                   Z       
    ------------   -----------------  -----------------  -----------------
           H          0.000000000000     0.948827488493    -0.652441272869
           O          0.000000000000     0.000000000000     0.082219463172
           H          0.000000000000    -0.948827488493    -0.652441272869

  Running in c1 symmetry.

  Rotational constants: A =     17.44830  B =      9.28981  C =      6.06219 [cm^-1]
  Rotational constants: A = 523086.85129  B = 278501.50283  C = 181739.75887 [MHz]
  Nuclear repulsion =    7.334554608310060

  Charge       = 0
  Multiplicity = 1
  Electrons    = 10
  Nalpha       = 5
  Nbeta        = 5

  ==> Algorithm <==

  SCF Algorithm Type is PK.
  DIIS enabled.
  MOM disabled.
  Fractional occupation disabled.
  Guess Type is CORE.
  Energy threshold   = 1.00e-08
  Density threshold  = 1.00e-08
  Integral threshold = 0.00e+00

  ==> Primary Basis <==

  Basis Set: CC-PVDZ
    Number of shells: 12
    Number of basis function: 24
    Number of Cartesian functions: 25
    Spherical Harmonics?: true
    Max angular momentum: 2

  ==> Pre-Iterations <==

   -------------------------------------------------------
    Irrep   Nso     Nmo     Nalpha   Nbeta   Ndocc  Nsocc
   -------------------------------------------------------
     A         24      24       0       0       0       0
   -------------------------------------------------------
    Total      24      24       5       5       5       0
   -------------------------------------------------------

  Starting with a DF guess...

 OEINTS: Overlap, kinetic, potential, dipole, and quadrupole integrals
         stored in file 35.

  ==> Integral Setup <==

  ==> DFJK: Density-Fitted J/K Matrices <==

    J tasked:                  Yes
    K tasked:                  Yes
    wK tasked:                  No
    OpenMP threads:              1
    Integrals threads:           1
    Memory (MB):               183
    Algorithm:                Core
    Integral Cache:           NONE
    Schwarz Cutoff:          1E-12
    Fitting Condition:       1E-12

   => Auxiliary Basis Set <=

  Basis Set: 
    Number of shells: 42
    Number of basis function: 116
    Number of Cartesian functions: 131
    Spherical Harmonics?: true
    Max angular momentum: 3

  Minimum eigenvalue in the overlap matrix is 5.7122925900E-02.
  Using Symmetric Orthogonalization.
  SCF Guess: Core (One-Electron) Hamiltonian.

  ==> Iterations <==

                           Total Energy        Delta E     RMS |[F,P]|

   @DF-RHF iter   1:   -68.96436964445567   -6.89644e+01   1.11733e-01 
   @DF-RHF iter   2:   -69.39109785262963   -4.26728e-01   1.07431e-01 DIIS
   @DF-RHF iter   3:   -75.76804380042960   -6.37695e+00   2.64293e-02 DIIS
   @DF-RHF iter   4:   -75.92725960371986   -1.59216e-01   6.71583e-03 DIIS
   @DF-RHF iter   5:   -75.94279692631673   -1.55373e-02   1.05382e-03 DIIS
   @DF-RHF iter   6:   -75.94322879222408   -4.31866e-04   7.13541e-04 DIIS
   @DF-RHF iter   7:   -75.94335888293776   -1.30091e-04   6.95806e-05 DIIS
   @DF-RHF iter   8:   -75.94336162715295   -2.74422e-06   3.39825e-05 DIIS
   @DF-RHF iter   9:   -75.94336189553594   -2.68383e-07   2.62944e-06 DIIS
   @DF-RHF iter  10:   -75.94336190253684   -7.00089e-09   1.36154e-06 DIIS
   @DF-RHF iter  11:   -75.94336190346037   -9.23535e-10   2.18348e-07 DIIS
   @DF-RHF iter  12:   -75.94336190347950   -1.91278e-11   1.56531e-08 DIIS
   @DF-RHF iter  13:   -75.94336190347964   -1.42109e-13   1.05057e-09 DIIS

  DF guess converged.

  ==> Integral Setup <==

 MINTS: Wrapper to libmints.
   by Justin Turney

   Calculation information:
      Number of atoms:                   3
      Number of AO shells:              12
      Number of SO shells:              12
      Number of primitives:             32
      Number of atomic orbitals:        25
      Number of basis functions:        24

      Number of irreps:                  1
      Integral cutoff                 0.00e+00
      Number of functions per irrep: [  24 ]

 OEINTS: Overlap, kinetic, potential, dipole, and quadrupole integrals
         stored in file 35.

      Computing two-electron integrals...done
      Computed 22027 non-zero two-electron integrals.
        Stored in file 33.

	Batch   1 pq = [       0,     300] index = [             0,45150]
  ==> DiskJK: Disk-Based J/K Matrices <==

    J tasked:                  Yes
    K tasked:                  Yes
    wK tasked:                  No
    Memory (MB):               183
    Schwarz Cutoff:          1E-12

   @RHF iter  14:   -75.94337375097989   -1.18475e-05   7.89281e-06 DIIS
   @RHF iter  15:   -75.94337376654522   -1.55653e-08   1.33311e-06 DIIS
   @RHF iter  16:   -75.94337376706423   -5.19009e-10   5.40265e-07 DIIS
   @RHF iter  17:   -75.94337376712332   -5.90887e-11   1.01035e-07 DIIS
   @RHF iter  18:   -75.94337376712735   -4.03588e-12   2.70599e-08 DIIS
   @RHF iter  19:   -75.94337376712767   -3.12639e-13   5.13110e-09 DIIS

  ==> Post-Iterations <==

    Orbital Energies (a.u.)
    -----------------------

    Doubly Occupied:                                                      

       1A    -20.590310     2A     -1.249291     3A     -0.590966  
       4A     -0.523443     5A     -0.485264  

    Virtual:                                                              

       6A      0.133919     7A      0.204444     8A      0.669262  
       9A      0.689579    10A      1.170363    11A      1.174926  
      12A      1.280250    13A      1.442899    14A      1.504005  
      15A      1.655265    16A      1.739231    17A      1.839734  
      18A      1.976358    19A      2.119655    20A      3.107229  
      21A      3.138457    22A      3.214456    23A      3.620424  
      24A      3.858930  

    Final Occupation by Irrep:
              A 
    DOCC [     5 ]

  Energy converged.

  @RHF Final Energy:   -75.94337376712767

   => Energetics <=

    Nuclear Repulsion Energy =              7.3345546083100599
    One-Electron Energy =                -119.6773093520397708
    Two-Electron Energy =                  36.3993809766020320
    DFT Exchange-Correlation Energy =       0.0000000000000000
    Empirical Dispersion Energy =           0.0000000000000000
    PCM Polarization Energy =               0.0000000000000000
    EFP Energy =                            0.0000000000000000
    Total Energy =                        -75.9433737671276816

    Alert: EFP and PCM quantities not currently incorporated into SCF psivars.

Properties will be evaluated at   0.000000,   0.000000,   0.000000 Bohr
  ==> Properties <==


Properties computed using the SCF density matrix

  Nuclear Dipole Moment: (a.u.)
     X:     0.0000      Y:     0.0000      Z:    -1.2229

  Electronic Dipole Moment: (a.u.)
     X:     0.0000      Y:     0.0000      Z:     0.3523

  Dipole Moment: (a.u.)
     X:     0.0000      Y:     0.0000      Z:    -0.8706     Total:     0.8706

  Dipole Moment: (Debye)
     X:     0.0000      Y:     0.0000      Z:    -2.2129     Total:     2.2129


  Saving occupied orbitals to File 180.

*** tstop() called on Kevins-MacBook-Pro.local at Fri Apr 10 18:09:20 2015
Module time:
	user time   =       0.29 seconds =       0.00 minutes
	system time =       0.01 seconds =       0.00 minutes
	total time  =          0 seconds =       0.00 minutes
Total time:
	user time   =       0.61 seconds =       0.01 minutes
	system time =       0.03 seconds =       0.00 minutes
	total time  =          1 seconds =       0.02 minutes
Reading options from the SCF block
Calling plugin scf.so.
    Molecular point group: c1
    Full point group: C2v

    Geometry (in Angstrom), charge = 0, multiplicity = 1:

       Center              X                  Y                   Z       
    ------------   -----------------  -----------------  -----------------
           H          0.000000000000     0.948827488493    -0.652441272869
           O          0.000000000000     0.000000000000     0.082219463172
           H          0.000000000000    -0.948827488493    -0.652441272869


    Nuclear repulsion energy:       7.33455461

  ## Overlap (Symmetry 0) ##
  Irrep: 1 Size: 24 x 24

                 1                   2                   3                   4                   5

    1     1.00000000000000     0.68486025149275     0.00000000000000     0.00000000000000    -0.00000000000000
    2     0.68486025149275     1.00000000000000     0.00000000000000     0.00000000000000     0.00000000000000
    3     0.00000000000000     0.00000000000000     1.00000000000000     0.00000000000000     0.00000000000000
    4     0.00000000000000     0.00000000000000     0.00000000000000     1.00000000000000     0.00000000000000
    5    -0.00000000000000     0.00000000000000     0.00000000000000     0.00000000000000     1.00000000000000
    6     0.02459480729059     0.05578713160428     0.02538631722744     0.00000000000000    -0.03278688302683
    7     0.15174264573887     0.26633105381549     0.15033071814622     0.00000000000000    -0.19415481288760
    8     0.34916341703997     0.55082581373829     0.20162660611209     0.00000000000000    -0.26040437021512
    9    -0.10882605249546    -0.06630471416570    -0.06038985498019     0.00000000000000     0.18790989591161
   10     0.00000000000000     0.00000000000000     0.00000000000000     0.08510553181472     0.00000000000000
   11     0.14055079440917     0.08563372497087     0.18790989591161     0.00000000000000    -0.15758346169465
   12    -0.34061606819577    -0.25665875182469     0.06209017397435     0.00000000000000     0.26807101295119
   13     0.00000000000000     0.00000000000000     0.00000000000000     0.26965292913751     0.00000000000000
   14     0.43991174792855     0.33147937128869     0.26807101295119     0.00000000000000    -0.07656558163620
   15     0.01020088743904     0.00191691661124    -0.10398017516148     0.00000000000000    -0.10107470967504
   16     0.00000000000000     0.00000000000000     0.00000000000000    -0.10521664623700     0.00000000000000
   17    -0.13747226689491    -0.02583332808741    -0.10013209176403     0.00000000000000     0.19960905231931
   18    -0.08877394648728    -0.01668210277622    -0.15241284927816     0.00000000000000     0.06095474087703
   19     0.00000000000000     0.00000000000000     0.00000000000000     0.13588918163044     0.00000000000000
   20     0.04048207260779     0.19492764572052     0.00000000000000     0.00000000000000    -0.05293788092260
   21     0.19492764572052     0.45637326359732     0.00000000000000     0.00000000000000    -0.13474737818184
   22     0.00000000000000     0.00000000000000     0.00933003877243     0.00000000000000     0.00000000000000
   23     0.00000000000000     0.00000000000000     0.00000000000000     0.00933003877243     0.00000000000000
   24     0.05293788092260     0.13474737818184     0.00000000000000     0.00000000000000    -0.07789679429612

                 6                   7                   8                   9                  10

    1     0.02459480729059     0.15174264573887     0.34916341703997    -0.10882605249546     0.00000000000000
    2     0.05578713160428     0.26633105381549     0.55082581373829    -0.06630471416570     0.00000000000000
    3     0.02538631722744     0.15033071814622     0.20162660611209    -0.06038985498019     0.00000000000000
    4     0.00000000000000     0.00000000000000     0.00000000000000     0.00000000000000     0.08510553181472
    5    -0.03278688302683    -0.19415481288760    -0.26040437021512     0.18790989591161     0.00000000000000
    6     1.00000000000000    -0.21406265175603     0.19438415205281    -0.00000000000000     0.00000000000000
    7    -0.21406265175603     1.00000000000000     0.70860732857704    -0.00000000000000     0.00000000000000
    8     0.19438415205281     0.70860732857704     1.00000000000000     0.00000000000000     0.00000000000000
    9    -0.00000000000000    -0.00000000000000     0.00000000000000     1.00000000000000     0.00000000000000
   10     0.00000000000000     0.00000000000000     0.00000000000000     0.00000000000000     1.00000000000000
   11     0.00000000000000     0.00000000000000     0.00000000000000     0.00000000000000     0.00000000000000
   12    -0.00000000000000    -0.00000000000000     0.00000000000000     0.50127148324600     0.00000000000000
   13     0.00000000000000     0.00000000000000     0.00000000000000     0.00000000000000     0.50127148324600
   14     0.00000000000000     0.00000000000000     0.00000000000000     0.00000000000000     0.00000000000000
   15     0.00000000000000     0.00000000000000     0.00000000000000     0.00000000000000     0.00000000000000
   16     0.00000000000000     0.00000000000000     0.00000000000000     0.00000000000000     0.00000000000000
   17     0.00000000000000     0.00000000000000     0.00000000000000     0.00000000000000     0.00000000000000
   18     0.00000000000000     0.00000000000000     0.00000000000000     0.00000000000000     0.00000000000000
   19     0.00000000000000     0.00000000000000     0.00000000000000     0.00000000000000     0.00000000000000
   20     0.02459480729059     0.15174264573887     0.34916341703997    -0.10882605249546     0.00000000000000
   21     0.05578713160428     0.26633105381549     0.55082581373829    -0.06630471416570     0.00000000000000
   22     0.02538631722744     0.15033071814622     0.20162660611209    -0.06038985498019     0.00000000000000
   23     0.00000000000000     0.00000000000000     0.00000000000000     0.00000000000000     0.08510553181472
   24     0.03278688302683     0.19415481288760     0.26040437021512    -0.18790989591161     0.00000000000000

                11                  12                  13                  14                  15

    1     0.14055079440917    -0.34061606819577     0.00000000000000     0.43991174792855     0.01020088743904
    2     0.08563372497087    -0.25665875182469     0.00000000000000     0.33147937128869     0.00191691661124
    3     0.18790989591161     0.06209017397435     0.00000000000000     0.26807101295119    -0.10398017516148
    4     0.00000000000000     0.00000000000000     0.26965292913751     0.00000000000000     0.00000000000000
    5    -0.15758346169465     0.26807101295119     0.00000000000000    -0.07656558163620    -0.10107470967504
    6     0.00000000000000    -0.00000000000000     0.00000000000000     0.00000000000000     0.00000000000000
    7     0.00000000000000    -0.00000000000000     0.00000000000000     0.00000000000000     0.00000000000000
    8     0.00000000000000     0.00000000000000     0.00000000000000     0.00000000000000     0.00000000000000
    9     0.00000000000000     0.50127148324600     0.00000000000000     0.00000000000000     0.00000000000000
   10     0.00000000000000     0.00000000000000     0.50127148324600     0.00000000000000     0.00000000000000
   11     1.00000000000000     0.00000000000000     0.00000000000000     0.50127148324600     0.00000000000000
   12     0.00000000000000     1.00000000000000     0.00000000000000     0.00000000000000    -0.00000000000000
   13     0.00000000000000     0.00000000000000     1.00000000000000     0.00000000000000     0.00000000000000
   14     0.50127148324600     0.00000000000000     0.00000000000000     1.00000000000000     0.00000000000000
   15     0.00000000000000    -0.00000000000000     0.00000000000000     0.00000000000000     1.00000000000000
   16     0.00000000000000     0.00000000000000    -0.00000000000000     0.00000000000000     0.00000000000000
   17     0.00000000000000     0.00000000000000     0.00000000000000    -0.00000000000000     0.00000000000000
   18     0.00000000000000     0.00000000000000     0.00000000000000     0.00000000000000     0.00000000000000
   19     0.00000000000000     0.00000000000000     0.00000000000000     0.00000000000000     0.00000000000000
   20    -0.14055079440917    -0.34061606819577     0.00000000000000    -0.43991174792855     0.01020088743904
   21    -0.08563372497087    -0.25665875182469     0.00000000000000    -0.33147937128869     0.00191691661124
   22    -0.18790989591161     0.06209017397435     0.00000000000000    -0.26807101295119    -0.10398017516148
   23     0.00000000000000     0.00000000000000     0.26965292913751     0.00000000000000     0.00000000000000
   24    -0.15758346169465    -0.26807101295119     0.00000000000000    -0.07656558163620     0.10107470967504

                16                  17                  18                  19                  20

    1     0.00000000000000    -0.13747226689491    -0.08877394648728     0.00000000000000     0.04048207260779
    2     0.00000000000000    -0.02583332808741    -0.01668210277622     0.00000000000000     0.19492764572052
    3     0.00000000000000    -0.10013209176403    -0.15241284927816     0.00000000000000     0.00000000000000
    4    -0.10521664623700     0.00000000000000     0.00000000000000     0.13588918163044     0.00000000000000
    5     0.00000000000000     0.19960905231931     0.06095474087703     0.00000000000000    -0.05293788092260
    6     0.00000000000000     0.00000000000000     0.00000000000000     0.00000000000000     0.02459480729059
    7     0.00000000000000     0.00000000000000     0.00000000000000     0.00000000000000     0.15174264573887
    8     0.00000000000000     0.00000000000000     0.00000000000000     0.00000000000000     0.34916341703997
    9     0.00000000000000     0.00000000000000     0.00000000000000     0.00000000000000    -0.10882605249546
   10     0.00000000000000     0.00000000000000     0.00000000000000     0.00000000000000     0.00000000000000
   11     0.00000000000000     0.00000000000000     0.00000000000000     0.00000000000000    -0.14055079440917
   12     0.00000000000000     0.00000000000000     0.00000000000000     0.00000000000000    -0.34061606819577
   13    -0.00000000000000     0.00000000000000     0.00000000000000     0.00000000000000     0.00000000000000
   14     0.00000000000000    -0.00000000000000     0.00000000000000     0.00000000000000    -0.43991174792855
   15     0.00000000000000     0.00000000000000     0.00000000000000     0.00000000000000     0.01020088743904
   16     1.00000000000000     0.00000000000000     0.00000000000000     0.00000000000000     0.00000000000000
   17     0.00000000000000     1.00000000000000     0.00000000000000     0.00000000000000     0.13747226689491
   18     0.00000000000000     0.00000000000000     1.00000000000000     0.00000000000000    -0.08877394648728
   19     0.00000000000000     0.00000000000000     0.00000000000000     1.00000000000000     0.00000000000000
   20     0.00000000000000     0.13747226689491    -0.08877394648728     0.00000000000000     1.00000000000000
   21     0.00000000000000     0.02583332808741    -0.01668210277622     0.00000000000000     0.68486025149275
   22     0.00000000000000     0.10013209176403    -0.15241284927816     0.00000000000000     0.00000000000000
   23    -0.10521664623700     0.00000000000000     0.00000000000000    -0.13588918163044     0.00000000000000
   24     0.00000000000000     0.19960905231931    -0.06095474087703     0.00000000000000    -0.00000000000000

                21                  22                  23                  24

    1     0.19492764572052     0.00000000000000     0.00000000000000     0.05293788092260
    2     0.45637326359732     0.00000000000000     0.00000000000000     0.13474737818184
    3     0.00000000000000     0.00933003877243     0.00000000000000     0.00000000000000
    4     0.00000000000000     0.00000000000000     0.00933003877243     0.00000000000000
    5    -0.13474737818184     0.00000000000000     0.00000000000000    -0.07789679429612
    6     0.05578713160428     0.02538631722744     0.00000000000000     0.03278688302683
    7     0.26633105381549     0.15033071814622     0.00000000000000     0.19415481288760
    8     0.55082581373829     0.20162660611209     0.00000000000000     0.26040437021512
    9    -0.06630471416570    -0.06038985498019     0.00000000000000    -0.18790989591161
   10     0.00000000000000     0.00000000000000     0.08510553181472     0.00000000000000
   11    -0.08563372497087    -0.18790989591161     0.00000000000000    -0.15758346169465
   12    -0.25665875182469     0.06209017397435     0.00000000000000    -0.26807101295119
   13     0.00000000000000     0.00000000000000     0.26965292913751     0.00000000000000
   14    -0.33147937128869    -0.26807101295119     0.00000000000000    -0.07656558163620
   15     0.00191691661124    -0.10398017516148     0.00000000000000     0.10107470967504
   16     0.00000000000000     0.00000000000000    -0.10521664623700     0.00000000000000
   17     0.02583332808741     0.10013209176403     0.00000000000000     0.19960905231931
   18    -0.01668210277622    -0.15241284927816     0.00000000000000    -0.06095474087703
   19     0.00000000000000     0.00000000000000    -0.13588918163044     0.00000000000000
   20     0.68486025149275     0.00000000000000     0.00000000000000    -0.00000000000000
   21     1.00000000000000     0.00000000000000     0.00000000000000     0.00000000000000
   22     0.00000000000000     1.00000000000000     0.00000000000000     0.00000000000000
   23     0.00000000000000     0.00000000000000     1.00000000000000     0.00000000000000
   24     0.00000000000000     0.00000000000000     0.00000000000000     1.00000000000000



  ## Kinetic (Symmetry 0) ##
  Irrep: 1 Size: 24 x 24

                 1                   2                   3                   4                   5

    1     0.96945722711242     0.20123413106538     0.00000000000000     0.00000000000000    -0.00000000000000
    2     0.20123413106538     0.18300000000000     0.00000000000000     0.00000000000000     0.00000000000000
    3     0.00000000000000     0.00000000000000     1.81750000000000     0.00000000000000     0.00000000000000
    4     0.00000000000000     0.00000000000000     0.00000000000000     1.81750000000000     0.00000000000000
    5    -0.00000000000000     0.00000000000000     0.00000000000000     0.00000000000000     1.81750000000000
    6    -0.01371498477214     0.01179365737959    -0.02776297458993     0.00000000000000     0.03585637854446
    7    -0.01936133532451     0.05424601996203     0.06682088169931     0.00000000000000    -0.08630036457815
    8     0.06761332836339     0.10083402043992     0.12071617338076     0.00000000000000    -0.15590709832471
    9    -0.03866613686526    -0.02823399293565    -0.13618051759620     0.00000000000000     0.19444453338190
   10     0.00000000000000     0.00000000000000     0.00000000000000     0.01437452612466     0.00000000000000
   11     0.04993800775207     0.03646470716756     0.19444453338190     0.00000000000000    -0.23675406862507
   12    -0.19091359553257    -0.08962164123325    -0.04636420641969     0.00000000000000     0.26477368144903
   13     0.00000000000000     0.00000000000000     0.00000000000000     0.15864548191338     0.00000000000000
   14     0.24656832532570     0.11574795357125     0.26477368144903     0.00000000000000    -0.18331446621442
   15     0.00912023921021     0.00124302720579    -0.09506680278978     0.00000000000000    -0.12813470882078
   16     0.00000000000000     0.00000000000000     0.00000000000000    -0.11216720307382     0.00000000000000
   17    -0.12290891026332    -0.01675165703112    -0.31943624981025     0.00000000000000     0.48748739761787
   18    -0.07936952862549    -0.01081753242631    -0.29982730034584     0.00000000000000     0.24236637409581
   19     0.00000000000000     0.00000000000000     0.00000000000000     0.14486595017620     0.00000000000000
   20    -0.02876013386057     0.00920103324322    -0.00000000000000     0.00000000000000     0.03450372268727
   21     0.00920103324322     0.03984038292145     0.00000000000000     0.00000000000000    -0.03256150220362
   22    -0.00000000000000     0.00000000000000    -0.01474960835152     0.00000000000000     0.00000000000000
   23     0.00000000000000     0.00000000000000     0.00000000000000    -0.01474960835152     0.00000000000000
   24    -0.03450372268727     0.03256150220362     0.00000000000000     0.00000000000000     0.05973104767292

                 6                   7                   8                   9                  10

    1    -0.01371498477214    -0.01936133532451     0.06761332836339    -0.03866613686526     0.00000000000000
    2     0.01179365737959     0.05424601996203     0.10083402043992    -0.02823399293565     0.00000000000000
    3    -0.02776297458993     0.06682088169931     0.12071617338076    -0.13618051759620     0.00000000000000
    4     0.00000000000000     0.00000000000000     0.00000000000000     0.00000000000000     0.01437452612466
    5     0.03585637854446    -0.08630036457815    -0.15590709832471     0.19444453338190     0.00000000000000
    6    29.18664172532131   -15.94965622463628     0.16779580102055    -0.00000000000000     0.00000000000000
    7   -15.94965622463628    10.36110421150721     0.47126332692091     0.00000000000000     0.00000000000000
    8     0.16779580102055     0.47126332692091     0.45345000000000     0.00000000000000     0.00000000000000
    9    -0.00000000000000     0.00000000000000     0.00000000000000     4.32482633292432     0.00000000000000
   10     0.00000000000000     0.00000000000000     0.00000000000000     0.00000000000000     4.32482633292432
   11     0.00000000000000     0.00000000000000     0.00000000000000     0.00000000000000     0.00000000000000
   12    -0.00000000000000    -0.00000000000000     0.00000000000000     0.55816889960661     0.00000000000000
   13     0.00000000000000     0.00000000000000     0.00000000000000     0.00000000000000     0.55816889960661
   14     0.00000000000000     0.00000000000000     0.00000000000000     0.00000000000000     0.00000000000000
   15    -0.00000000000000     0.00000000000000     0.00000000000000     0.00000000000000     0.00000000000000
   16     0.00000000000000     0.00000000000000     0.00000000000000     0.00000000000000     0.00000000000000
   17     0.00000000000000     0.00000000000000     0.00000000000000     0.00000000000000     0.00000000000000
   18     0.00000000000000     0.00000000000000     0.00000000000000     0.00000000000000     0.00000000000000
   19     0.00000000000000     0.00000000000000     0.00000000000000     0.00000000000000     0.00000000000000
   20    -0.01371498477214    -0.01936133532451     0.06761332836339    -0.03866613686526     0.00000000000000
   21     0.01179365737959     0.05424601996203     0.10083402043992    -0.02823399293565     0.00000000000000
   22    -0.02776297458993     0.06682088169931     0.12071617338076    -0.13618051759620     0.00000000000000
   23     0.00000000000000     0.00000000000000     0.00000000000000     0.00000000000000     0.01437452612466
   24    -0.03585637854446     0.08630036457815     0.15590709832471    -0.19444453338190     0.00000000000000

                11                  12                  13                  14                  15

    1     0.04993800775207    -0.19091359553257     0.00000000000000     0.24656832532570     0.00912023921021
    2     0.03646470716756    -0.08962164123325     0.00000000000000     0.11574795357125     0.00124302720579
    3     0.19444453338190    -0.04636420641969     0.00000000000000     0.26477368144903    -0.09506680278978
    4     0.00000000000000     0.00000000000000     0.15864548191338     0.00000000000000     0.00000000000000
    5    -0.23675406862507     0.26477368144903     0.00000000000000    -0.18331446621442    -0.12813470882078
    6     0.00000000000000    -0.00000000000000     0.00000000000000     0.00000000000000    -0.00000000000000
    7     0.00000000000000    -0.00000000000000     0.00000000000000     0.00000000000000     0.00000000000000
    8     0.00000000000000     0.00000000000000     0.00000000000000     0.00000000000000     0.00000000000000
    9     0.00000000000000     0.55816889960661     0.00000000000000     0.00000000000000     0.00000000000000
   10     0.00000000000000     0.00000000000000     0.55816889960661     0.00000000000000     0.00000000000000
   11     4.32482633292432     0.00000000000000     0.00000000000000     0.55816889960661     0.00000000000000
   12     0.00000000000000     0.68825000000000     0.00000000000000     0.00000000000000    -0.00000000000000
   13     0.00000000000000     0.00000000000000     0.68825000000000     0.00000000000000     0.00000000000000
   14     0.55816889960661     0.00000000000000     0.00000000000000     0.68825000000000     0.00000000000000
   15     0.00000000000000    -0.00000000000000     0.00000000000000     0.00000000000000     4.14750000000000
   16     0.00000000000000     0.00000000000000    -0.00000000000000     0.00000000000000     0.00000000000000
   17     0.00000000000000     0.00000000000000     0.00000000000000    -0.00000000000000     0.00000000000000
   18     0.00000000000000     0.00000000000000     0.00000000000000     0.00000000000000    -0.00000000000000
   19     0.00000000000000     0.00000000000000     0.00000000000000     0.00000000000000     0.00000000000000
   20    -0.04993800775207    -0.19091359553257     0.00000000000000    -0.24656832532570     0.00912023921021
   21    -0.03646470716756    -0.08962164123325     0.00000000000000    -0.11574795357125     0.00124302720579
   22    -0.19444453338190    -0.04636420641969     0.00000000000000    -0.26477368144903    -0.09506680278978
   23     0.00000000000000     0.00000000000000     0.15864548191338     0.00000000000000     0.00000000000000
   24    -0.23675406862507    -0.26477368144903     0.00000000000000    -0.18331446621442     0.12813470882078

                16                  17                  18                  19                  20

    1     0.00000000000000    -0.12290891026332    -0.07936952862549     0.00000000000000    -0.02876013386057
    2     0.00000000000000    -0.01675165703112    -0.01081753242631     0.00000000000000     0.00920103324322
    3     0.00000000000000    -0.31943624981025    -0.29982730034584     0.00000000000000    -0.00000000000000
    4    -0.11216720307382     0.00000000000000     0.00000000000000     0.14486595017620     0.00000000000000
    5     0.00000000000000     0.48748739761787     0.24236637409581     0.00000000000000     0.03450372268727
    6     0.00000000000000     0.00000000000000     0.00000000000000     0.00000000000000    -0.01371498477214
    7     0.00000000000000     0.00000000000000     0.00000000000000     0.00000000000000    -0.01936133532451
    8     0.00000000000000     0.00000000000000     0.00000000000000     0.00000000000000     0.06761332836339
    9     0.00000000000000     0.00000000000000     0.00000000000000     0.00000000000000    -0.03866613686526
   10     0.00000000000000     0.00000000000000     0.00000000000000     0.00000000000000     0.00000000000000
   11     0.00000000000000     0.00000000000000     0.00000000000000     0.00000000000000    -0.04993800775207
   12     0.00000000000000     0.00000000000000     0.00000000000000     0.00000000000000    -0.19091359553257
   13    -0.00000000000000     0.00000000000000     0.00000000000000     0.00000000000000     0.00000000000000
   14     0.00000000000000    -0.00000000000000     0.00000000000000     0.00000000000000    -0.24656832532570
   15     0.00000000000000     0.00000000000000     0.00000000000000     0.00000000000000     0.00912023921021
   16     4.14750000000000     0.00000000000000     0.00000000000000     0.00000000000000     0.00000000000000
   17     0.00000000000000     4.14750000000000     0.00000000000000     0.00000000000000     0.12290891026332
   18     0.00000000000000     0.00000000000000     4.14750000000000     0.00000000000000    -0.07936952862549
   19     0.00000000000000     0.00000000000000     0.00000000000000     4.14750000000000     0.00000000000000
   20     0.00000000000000     0.12290891026332    -0.07936952862549     0.00000000000000     0.96945722711242
   21     0.00000000000000     0.01675165703112    -0.01081753242631     0.00000000000000     0.20123413106538
   22     0.00000000000000     0.31943624981025    -0.29982730034585     0.00000000000000     0.00000000000000
   23    -0.11216720307382     0.00000000000000     0.00000000000000    -0.14486595017620     0.00000000000000
   24     0.00000000000000     0.48748739761787    -0.24236637409581     0.00000000000000    -0.00000000000000

                21                  22                  23                  24

    1     0.00920103324322    -0.00000000000000     0.00000000000000    -0.03450372268727
    2     0.03984038292145     0.00000000000000     0.00000000000000     0.03256150220362
    3     0.00000000000000    -0.01474960835152     0.00000000000000     0.00000000000000
    4     0.00000000000000     0.00000000000000    -0.01474960835152     0.00000000000000
    5    -0.03256150220362     0.00000000000000     0.00000000000000     0.05973104767292
    6     0.01179365737959    -0.02776297458993     0.00000000000000    -0.03585637854446
    7     0.05424601996203     0.06682088169931     0.00000000000000     0.08630036457815
    8     0.10083402043992     0.12071617338076     0.00000000000000     0.15590709832471
    9    -0.02823399293565    -0.13618051759620     0.00000000000000    -0.19444453338190
   10     0.00000000000000     0.00000000000000     0.01437452612466     0.00000000000000
   11    -0.03646470716756    -0.19444453338190     0.00000000000000    -0.23675406862507
   12    -0.08962164123325    -0.04636420641969     0.00000000000000    -0.26477368144903
   13     0.00000000000000     0.00000000000000     0.15864548191338     0.00000000000000
   14    -0.11574795357125    -0.26477368144903     0.00000000000000    -0.18331446621442
   15     0.00124302720579    -0.09506680278978     0.00000000000000     0.12813470882078
   16     0.00000000000000     0.00000000000000    -0.11216720307382     0.00000000000000
   17     0.01675165703112     0.31943624981025     0.00000000000000     0.48748739761787
   18    -0.01081753242631    -0.29982730034585     0.00000000000000    -0.24236637409581
   19     0.00000000000000     0.00000000000000    -0.14486595017620     0.00000000000000
   20     0.20123413106538     0.00000000000000     0.00000000000000    -0.00000000000000
   21     0.18300000000000     0.00000000000000     0.00000000000000     0.00000000000000
   22     0.00000000000000     1.81750000000000     0.00000000000000     0.00000000000000
   23     0.00000000000000     0.00000000000000     1.81750000000000     0.00000000000000
   24     0.00000000000000     0.00000000000000     0.00000000000000     1.81750000000000



  ## Potential (Symmetry 0) ##
  Irrep: 1 Size: 24 x 24

                 1                   2                   3                   4                   5

    1    -5.17874256689384    -3.22298309003932    -0.59530942566185     0.00000000000000     0.81777476621759
    2    -3.22298309003932    -3.96144289351837    -0.54348778107391     0.00000000000000     0.74781236815212
    3    -0.59530942566185    -0.54348778107391    -4.73293317203876     0.00000000000000     0.33898233167732
    4     0.00000000000000     0.00000000000000     0.00000000000000    -4.47046500757747     0.00000000000000
    5     0.81777476621759     0.74781236815212     0.33898233167732     0.00000000000000    -4.93063738827364
    6    -0.71302113996419    -1.68238539234968    -0.72370267093795     0.00000000000000     0.93513782256857
    7    -1.15057657494504    -2.00163943637392    -1.18421526315908     0.00000000000000     1.54045753267090
    8    -2.24862514063795    -3.56335628372460    -1.57720755345537     0.00000000000000     2.06628208186191
    9     0.88679084415027     0.57119593431748     0.58756747951723     0.00000000000000    -1.60648525847785
   10     0.00000000000000     0.00000000000000     0.00000000000000    -0.64817851101023     0.00000000000000
   11    -1.12664123774948    -0.68269054021817    -1.58321612572821     0.00000000000000     1.40333705920726
   12     1.83628835542417     1.28972348527541    -0.05058429672948     0.00000000000000    -1.71078492037255
   13     0.00000000000000     0.00000000000000     0.00000000000000    -1.34887416414812     0.00000000000000
   14    -2.33783216488397    -1.52610427560796    -1.66646361479076     0.00000000000000     0.82972028592753
   15    -0.08397029595179    -0.02800579001423     0.67339690633971     0.00000000000000     0.70143798643025
   16     0.00000000000000     0.00000000000000     0.00000000000000     0.70172861282957     0.00000000000000
   17     0.96262128257439     0.19405594995315     0.78512284079242     0.00000000000000    -1.48007210177933
   18     0.61805669485817     0.14092488467887     1.07989504046683     0.00000000000000    -0.50183431145827
   19     0.00000000000000     0.00000000000000     0.00000000000000    -0.89709066258777     0.00000000000000
   20    -0.26181327350389    -1.06778239620863    -0.04874988287123     0.00000000000000     0.35627725434248
   21    -1.06778239620863    -2.15833364551803    -0.22676795341102     0.00000000000000     0.92164013999651
   22    -0.04874988287123    -0.22676795341102    -0.07258102715665     0.00000000000000     0.06023629009271
   23     0.00000000000000     0.00000000000000     0.00000000000000    -0.05377775038177     0.00000000000000
   24    -0.35627725434248    -0.92164013999651    -0.06023629009271     0.00000000000000     0.53391620105299

                 6                   7                   8                   9                  10

    1    -0.71302113996419    -1.15057657494504    -2.24862514063795     0.88679084415027     0.00000000000000
    2    -1.68238539234968    -2.00163943637392    -3.56335628372460     0.57119593431748     0.00000000000000
    3    -0.72370267093795    -1.18421526315908    -1.57720755345537     0.58756747951723     0.00000000000000
    4     0.00000000000000     0.00000000000000     0.00000000000000     0.00000000000000    -0.64817851101023
    5     0.93513782256857     1.54045753267090     2.06628208186191    -1.60648525847785     0.00000000000000
    6   -61.98972915013024    23.77064337417842    -6.05378268123595     0.01951252398999     0.00000000000000
    7    23.77064337417844   -20.41645298562221    -5.36020867178043     0.10885629255794     0.00000000000000
    8    -6.05378268123595    -5.36020867178043    -7.88987223189063     0.11617014741619     0.00000000000000
    9     0.01951252398999     0.10885629255794     0.11617014741619   -12.61850966268233     0.00000000000000
   10     0.00000000000000     0.00000000000000     0.00000000000000     0.00000000000000   -12.58571850632587
   11     0.00000000000000     0.00000000000000     0.00000000000000    -0.00000000000000     0.00000000000000
   12     0.00368588015672     0.07643945197379     0.19120764404991    -4.25911923310283     0.00000000000000
   13     0.00000000000000     0.00000000000000     0.00000000000000     0.00000000000000    -4.22616737527798
   14     0.00000000000000     0.00000000000000     0.00000000000000    -0.00000000000000     0.00000000000000
   15    -0.00019682991732    -0.00483558082727    -0.00708322405043     0.10067456919943     0.00000000000000
   16     0.00000000000000     0.00000000000000     0.00000000000000     0.00000000000000     0.08534427342067
   17    -0.00000000000000    -0.00000000000000    -0.00000000000000     0.00000000000000     0.00000000000000
   18     0.00171292631665     0.04208198513709     0.06164225971206    -0.01851463900685     0.00000000000000
   19     0.00000000000000     0.00000000000000     0.00000000000000     0.00000000000000     0.00000000000000
   20    -0.71302113996419    -1.15057657494505    -2.24862514063796     0.88679084415027     0.00000000000000
   21    -1.68238539234968    -2.00163943637393    -3.56335628372461     0.57119593431748     0.00000000000000
   22    -0.72370267093796    -1.18421526315908    -1.57720755345538     0.58756747951724     0.00000000000000
   23     0.00000000000000     0.00000000000000     0.00000000000000     0.00000000000000    -0.64817851101023
   24    -0.93513782256857    -1.54045753267091    -2.06628208186191     1.60648525847786     0.00000000000000

                11                  12                  13                  14                  15

    1    -1.12664123774948     1.83628835542417     0.00000000000000    -2.33783216488397    -0.08397029595179
    2    -0.68269054021817     1.28972348527541     0.00000000000000    -1.52610427560796    -0.02800579001423
    3    -1.58321612572821    -0.05058429672948     0.00000000000000    -1.66646361479076     0.67339690633971
    4     0.00000000000000     0.00000000000000    -1.34887416414812     0.00000000000000     0.00000000000000
    5     1.40333705920726    -1.71078492037255     0.00000000000000     0.82972028592753     0.70143798643025
    6     0.00000000000000     0.00368588015672     0.00000000000000     0.00000000000000    -0.00019682991732
    7     0.00000000000000     0.07643945197379     0.00000000000000     0.00000000000000    -0.00483558082727
    8     0.00000000000000     0.19120764404991     0.00000000000000     0.00000000000000    -0.00708322405043
    9    -0.00000000000000    -4.25911923310283     0.00000000000000    -0.00000000000000     0.10067456919943
   10     0.00000000000000     0.00000000000000    -4.22616737527798     0.00000000000000     0.00000000000000
   11   -12.64041476101452    -0.00000000000000     0.00000000000000    -4.28113168298521    -0.00000000000000
   12    -0.00000000000000    -5.31208390350718     0.00000000000000    -0.00000000000000     0.09212043932221
   13     0.00000000000000     0.00000000000000    -5.19657479941144     0.00000000000000     0.00000000000000
   14    -4.28113168298521    -0.00000000000000     0.00000000000000    -5.38924611931850     0.00000000000000
   15    -0.00000000000000     0.09212043932221     0.00000000000000     0.00000000000000    -8.28705305275032
   16     0.00000000000000     0.00000000000000     0.07690073275867     0.00000000000000     0.00000000000000
   17     0.12237355143437     0.00000000000000     0.00000000000000     0.13474013917559    -0.00000000000000
   18    -0.00000000000000    -0.02891970320846     0.00000000000000    -0.00000000000000    -0.02940142036360
   19     0.00000000000000     0.00000000000000     0.00000000000000     0.00000000000000     0.00000000000000
   20     1.12664123774948     1.83628835542418     0.00000000000000     2.33783216488397    -0.08397029595179
   21     0.68269054021817     1.28972348527541     0.00000000000000     1.52610427560796    -0.02800579001423
   22     1.58321612572822    -0.05058429672948     0.00000000000000     1.66646361479077     0.67339690633971
   23     0.00000000000000     0.00000000000000    -1.34887416414812     0.00000000000000     0.00000000000000
   24     1.40333705920726     1.71078492037255     0.00000000000000     0.82972028592753    -0.70143798643025

                16                  17                  18                  19                  20

    1     0.00000000000000     0.96262128257439     0.61805669485817     0.00000000000000    -0.26181327350389
    2     0.00000000000000     0.19405594995315     0.14092488467887     0.00000000000000    -1.06778239620863
    3     0.00000000000000     0.78512284079242     1.07989504046683     0.00000000000000    -0.04874988287123
    4     0.70172861282957     0.00000000000000     0.00000000000000    -0.89709066258777     0.00000000000000
    5     0.00000000000000    -1.48007210177933    -0.50183431145827     0.00000000000000     0.35627725434248
    6     0.00000000000000    -0.00000000000000     0.00171292631665     0.00000000000000    -0.71302113996419
    7     0.00000000000000    -0.00000000000000     0.04208198513709     0.00000000000000    -1.15057657494505
    8     0.00000000000000    -0.00000000000000     0.06164225971206     0.00000000000000    -2.24862514063796
    9     0.00000000000000     0.00000000000000    -0.01851463900685     0.00000000000000     0.88679084415027
   10     0.08534427342067     0.00000000000000     0.00000000000000     0.00000000000000     0.00000000000000
   11     0.00000000000000     0.12237355143437    -0.00000000000000     0.00000000000000     1.12664123774948
   12     0.00000000000000     0.00000000000000    -0.02891970320846     0.00000000000000     1.83628835542418
   13     0.07690073275867     0.00000000000000     0.00000000000000     0.00000000000000     0.00000000000000
   14     0.00000000000000     0.13474013917559    -0.00000000000000     0.00000000000000     2.33783216488397
   15     0.00000000000000    -0.00000000000000    -0.02940142036360     0.00000000000000    -0.08397029595179
   16    -8.25809089838752     0.00000000000000     0.00000000000000    -0.00000000000000     0.00000000000000
   17     0.00000000000000    -8.34842340022149     0.00000000000000     0.00000000000000    -0.96262128257439
   18     0.00000000000000     0.00000000000000    -8.29486888972665     0.00000000000000     0.61805669485817
   19    -0.00000000000000     0.00000000000000     0.00000000000000    -8.27969503652016     0.00000000000000
   20     0.00000000000000    -0.96262128257439     0.61805669485817     0.00000000000000    -5.17874256689384
   21     0.00000000000000    -0.19405594995315     0.14092488467887     0.00000000000000    -3.22298309003932
   22     0.00000000000000    -0.78512284079242     1.07989504046684     0.00000000000000    -0.59530942566185
   23     0.70172861282957     0.00000000000000     0.00000000000000     0.89709066258778     0.00000000000000
   24     0.00000000000000    -1.48007210177933     0.50183431145827     0.00000000000000    -0.81777476621759

                21                  22                  23                  24

    1    -1.06778239620863    -0.04874988287123     0.00000000000000    -0.35627725434248
    2    -2.15833364551803    -0.22676795341102     0.00000000000000    -0.92164013999651
    3    -0.22676795341102    -0.07258102715665     0.00000000000000    -0.06023629009271
    4     0.00000000000000     0.00000000000000    -0.05377775038177     0.00000000000000
    5     0.92164013999651     0.06023629009271     0.00000000000000     0.53391620105299
    6    -1.68238539234968    -0.72370267093796     0.00000000000000    -0.93513782256857
    7    -2.00163943637393    -1.18421526315908     0.00000000000000    -1.54045753267091
    8    -3.56335628372461    -1.57720755345538     0.00000000000000    -2.06628208186191
    9     0.57119593431748     0.58756747951724     0.00000000000000     1.60648525847786
   10     0.00000000000000     0.00000000000000    -0.64817851101023     0.00000000000000
   11     0.68269054021817     1.58321612572822     0.00000000000000     1.40333705920726
   12     1.28972348527541    -0.05058429672948     0.00000000000000     1.71078492037255
   13     0.00000000000000     0.00000000000000    -1.34887416414812     0.00000000000000
   14     1.52610427560796     1.66646361479077     0.00000000000000     0.82972028592753
   15    -0.02800579001423     0.67339690633971     0.00000000000000    -0.70143798643025
   16     0.00000000000000     0.00000000000000     0.70172861282957     0.00000000000000
   17    -0.19405594995315    -0.78512284079242     0.00000000000000    -1.48007210177933
   18     0.14092488467887     1.07989504046683     0.00000000000000     0.50183431145827
   19     0.00000000000000     0.00000000000000     0.89709066258778     0.00000000000000
   20    -3.22298309003932    -0.59530942566185     0.00000000000000    -0.81777476621759
   21    -3.96144289351837    -0.54348778107391     0.00000000000000    -0.74781236815212
   22    -0.54348778107391    -4.73293317203876     0.00000000000000    -0.33898233167732
   23     0.00000000000000     0.00000000000000    -4.47046500757747     0.00000000000000
   24    -0.74781236815212    -0.33898233167732     0.00000000000000    -4.93063738827364



  ## One Electron Ints (Symmetry 0) ##
  Irrep: 1 Size: 24 x 24

                 1                   2                   3                   4                   5

    1    -4.20928533978142    -3.02174895897394    -0.59530942566184     0.00000000000000     0.81777476621759
    2    -3.02174895897394    -3.77844289351837    -0.54348778107391     0.00000000000000     0.74781236815212
    3    -0.59530942566184    -0.54348778107391    -2.91543317203876     0.00000000000000     0.33898233167732
    4     0.00000000000000     0.00000000000000     0.00000000000000    -2.65296500757747     0.00000000000000
    5     0.81777476621759     0.74781236815212     0.33898233167732     0.00000000000000    -3.11313738827364
    6    -0.72673612473633    -1.67059173497009    -0.75146564552788     0.00000000000000     0.97099420111303
    7    -1.16993791026955    -1.94739341641189    -1.11739438145977     0.00000000000000     1.45415716809276
    8    -2.18101181227456    -3.46252226328468    -1.45649138007461     0.00000000000000     1.91037498353720
    9     0.84812470728501     0.54296194138183     0.45138696192103     0.00000000000000    -1.41204072509595
   10     0.00000000000000     0.00000000000000     0.00000000000000    -0.63380398488557     0.00000000000000
   11    -1.07670322999740    -0.64622583305061    -1.38877159234632     0.00000000000000     1.16658299058219
   12     1.64537475989161     1.20010184404216    -0.09694850314917     0.00000000000000    -1.44601123892352
   13     0.00000000000000     0.00000000000000     0.00000000000000    -1.19022868223474     0.00000000000000
   14    -2.09126383955827    -1.41035632203671    -1.40168993334173     0.00000000000000     0.64640581971311
   15    -0.07485005674158    -0.02676276280844     0.57833010354992     0.00000000000000     0.57330327760947
   16     0.00000000000000     0.00000000000000     0.00000000000000     0.58956140975575     0.00000000000000
   17     0.83971237231107     0.17730429292203     0.46568659098217     0.00000000000000    -0.99258470416146
   18     0.53868716623268     0.13010735225256     0.78006774012099     0.00000000000000    -0.25946793736247
   19     0.00000000000000     0.00000000000000     0.00000000000000    -0.75222471241158     0.00000000000000
   20    -0.29057340736446    -1.05858136296540    -0.04874988287123     0.00000000000000     0.39078097702975
   21    -1.05858136296540    -2.11849326259658    -0.22676795341102     0.00000000000000     0.88907863779290
   22    -0.04874988287123    -0.22676795341102    -0.08733063550817     0.00000000000000     0.06023629009271
   23     0.00000000000000     0.00000000000000     0.00000000000000    -0.06852735873329     0.00000000000000
   24    -0.39078097702975    -0.88907863779290    -0.06023629009271     0.00000000000000     0.59364724872590

                 6                   7                   8                   9                  10

    1    -0.72673612473633    -1.16993791026955    -2.18101181227456     0.84812470728501     0.00000000000000
    2    -1.67059173497009    -1.94739341641189    -3.46252226328469     0.54296194138183     0.00000000000000
    3    -0.75146564552788    -1.11739438145977    -1.45649138007461     0.45138696192103     0.00000000000000
    4     0.00000000000000     0.00000000000000     0.00000000000000     0.00000000000000    -0.63380398488557
    5     0.97099420111303     1.45415716809276     1.91037498353720    -1.41204072509595     0.00000000000000
    6   -32.80308742480894     7.82098714954214    -5.88598688021540     0.01951252398999     0.00000000000000
    7     7.82098714954216   -10.05534877411500    -4.88894534485952     0.10885629255794     0.00000000000000
    8    -5.88598688021540    -4.88894534485952    -7.43642223189063     0.11617014741619     0.00000000000000
    9     0.01951252398999     0.10885629255794     0.11617014741619    -8.29368332975801     0.00000000000000
   10     0.00000000000000     0.00000000000000     0.00000000000000     0.00000000000000    -8.26089217340155
   11     0.00000000000000     0.00000000000000     0.00000000000000    -0.00000000000000     0.00000000000000
   12     0.00368588015672     0.07643945197379     0.19120764404991    -3.70095033349622     0.00000000000000
   13     0.00000000000000     0.00000000000000     0.00000000000000     0.00000000000000    -3.66799847567137
   14     0.00000000000000     0.00000000000000     0.00000000000000    -0.00000000000000     0.00000000000000
   15    -0.00019682991732    -0.00483558082727    -0.00708322405043     0.10067456919943     0.00000000000000
   16     0.00000000000000     0.00000000000000     0.00000000000000     0.00000000000000     0.08534427342067
   17    -0.00000000000000    -0.00000000000000    -0.00000000000000     0.00000000000000     0.00000000000000
   18     0.00171292631665     0.04208198513709     0.06164225971206    -0.01851463900685     0.00000000000000
   19     0.00000000000000     0.00000000000000     0.00000000000000     0.00000000000000     0.00000000000000
   20    -0.72673612473634    -1.16993791026956    -2.18101181227456     0.84812470728501     0.00000000000000
   21    -1.67059173497009    -1.94739341641189    -3.46252226328469     0.54296194138183     0.00000000000000
   22    -0.75146564552789    -1.11739438145977    -1.45649138007462     0.45138696192103     0.00000000000000
   23     0.00000000000000     0.00000000000000     0.00000000000000     0.00000000000000    -0.63380398488557
   24    -0.97099420111303    -1.45415716809276    -1.91037498353720     1.41204072509596     0.00000000000000

                11                  12                  13                  14                  15

    1    -1.07670322999740     1.64537475989161     0.00000000000000    -2.09126383955827    -0.07485005674158
    2    -0.64622583305061     1.20010184404216     0.00000000000000    -1.41035632203671    -0.02676276280844
    3    -1.38877159234632    -0.09694850314917     0.00000000000000    -1.40168993334173     0.57833010354993
    4     0.00000000000000     0.00000000000000    -1.19022868223474     0.00000000000000     0.00000000000000
    5     1.16658299058219    -1.44601123892352     0.00000000000000     0.64640581971311     0.57330327760947
    6     0.00000000000000     0.00368588015672     0.00000000000000     0.00000000000000    -0.00019682991732
    7     0.00000000000000     0.07643945197379     0.00000000000000     0.00000000000000    -0.00483558082727
    8     0.00000000000000     0.19120764404991     0.00000000000000     0.00000000000000    -0.00708322405043
    9    -0.00000000000000    -3.70095033349622     0.00000000000000    -0.00000000000000     0.10067456919943
   10     0.00000000000000     0.00000000000000    -3.66799847567137     0.00000000000000     0.00000000000000
   11    -8.31558842809020    -0.00000000000000     0.00000000000000    -3.72296278337860    -0.00000000000000
   12    -0.00000000000000    -4.62383390350718     0.00000000000000    -0.00000000000000     0.09212043932221
   13     0.00000000000000     0.00000000000000    -4.50832479941144     0.00000000000000     0.00000000000000
   14    -3.72296278337860    -0.00000000000000     0.00000000000000    -4.70099611931850     0.00000000000000
   15    -0.00000000000000     0.09212043932221     0.00000000000000     0.00000000000000    -4.13955305275032
   16     0.00000000000000     0.00000000000000     0.07690073275867     0.00000000000000     0.00000000000000
   17     0.12237355143437     0.00000000000000     0.00000000000000     0.13474013917559    -0.00000000000000
   18    -0.00000000000000    -0.02891970320846     0.00000000000000    -0.00000000000000    -0.02940142036360
   19     0.00000000000000     0.00000000000000     0.00000000000000     0.00000000000000     0.00000000000000
   20     1.07670322999741     1.64537475989161     0.00000000000000     2.09126383955827    -0.07485005674158
   21     0.64622583305061     1.20010184404216     0.00000000000000     1.41035632203671    -0.02676276280844
   22     1.38877159234632    -0.09694850314917     0.00000000000000     1.40168993334174     0.57833010354993
   23     0.00000000000000     0.00000000000000    -1.19022868223474     0.00000000000000     0.00000000000000
   24     1.16658299058219     1.44601123892352     0.00000000000000     0.64640581971311    -0.57330327760947

                16                  17                  18                  19                  20

    1     0.00000000000000     0.83971237231107     0.53868716623268     0.00000000000000    -0.29057340736446
    2     0.00000000000000     0.17730429292203     0.13010735225256     0.00000000000000    -1.05858136296540
    3     0.00000000000000     0.46568659098217     0.78006774012099     0.00000000000000    -0.04874988287123
    4     0.58956140975575     0.00000000000000     0.00000000000000    -0.75222471241158     0.00000000000000
    5     0.00000000000000    -0.99258470416146    -0.25946793736247     0.00000000000000     0.39078097702975
    6     0.00000000000000    -0.00000000000000     0.00171292631665     0.00000000000000    -0.72673612473634
    7     0.00000000000000    -0.00000000000000     0.04208198513709     0.00000000000000    -1.16993791026956
    8     0.00000000000000    -0.00000000000000     0.06164225971206     0.00000000000000    -2.18101181227456
    9     0.00000000000000     0.00000000000000    -0.01851463900685     0.00000000000000     0.84812470728501
   10     0.08534427342067     0.00000000000000     0.00000000000000     0.00000000000000     0.00000000000000
   11     0.00000000000000     0.12237355143437    -0.00000000000000     0.00000000000000     1.07670322999741
   12     0.00000000000000     0.00000000000000    -0.02891970320846     0.00000000000000     1.64537475989161
   13     0.07690073275867     0.00000000000000     0.00000000000000     0.00000000000000     0.00000000000000
   14     0.00000000000000     0.13474013917559    -0.00000000000000     0.00000000000000     2.09126383955827
   15     0.00000000000000    -0.00000000000000    -0.02940142036360     0.00000000000000    -0.07485005674158
   16    -4.11059089838752     0.00000000000000     0.00000000000000    -0.00000000000000     0.00000000000000
   17     0.00000000000000    -4.20092340022149     0.00000000000000     0.00000000000000    -0.83971237231107
   18     0.00000000000000     0.00000000000000    -4.14736888972665     0.00000000000000     0.53868716623268
   19    -0.00000000000000     0.00000000000000     0.00000000000000    -4.13219503652016     0.00000000000000
   20     0.00000000000000    -0.83971237231107     0.53868716623268     0.00000000000000    -4.20928533978142
   21     0.00000000000000    -0.17730429292203     0.13010735225256     0.00000000000000    -3.02174895897394
   22     0.00000000000000    -0.46568659098217     0.78006774012099     0.00000000000000    -0.59530942566185
   23     0.58956140975575     0.00000000000000     0.00000000000000     0.75222471241158     0.00000000000000
   24     0.00000000000000    -0.99258470416146     0.25946793736247     0.00000000000000    -0.81777476621759

                21                  22                  23                  24

    1    -1.05858136296540    -0.04874988287123     0.00000000000000    -0.39078097702975
    2    -2.11849326259658    -0.22676795341102     0.00000000000000    -0.88907863779290
    3    -0.22676795341102    -0.08733063550817     0.00000000000000    -0.06023629009271
    4     0.00000000000000     0.00000000000000    -0.06852735873329     0.00000000000000
    5     0.88907863779290     0.06023629009271     0.00000000000000     0.59364724872590
    6    -1.67059173497009    -0.75146564552789     0.00000000000000    -0.97099420111303
    7    -1.94739341641189    -1.11739438145977     0.00000000000000    -1.45415716809276
    8    -3.46252226328469    -1.45649138007462     0.00000000000000    -1.91037498353720
    9     0.54296194138183     0.45138696192103     0.00000000000000     1.41204072509596
   10     0.00000000000000     0.00000000000000    -0.63380398488557     0.00000000000000
   11     0.64622583305061     1.38877159234632     0.00000000000000     1.16658299058219
   12     1.20010184404216    -0.09694850314917     0.00000000000000     1.44601123892353
   13     0.00000000000000     0.00000000000000    -1.19022868223474     0.00000000000000
   14     1.41035632203671     1.40168993334174     0.00000000000000     0.64640581971311
   15    -0.02676276280844     0.57833010354993     0.00000000000000    -0.57330327760947
   16     0.00000000000000     0.00000000000000     0.58956140975575     0.00000000000000
   17    -0.17730429292203    -0.46568659098217     0.00000000000000    -0.99258470416146
   18     0.13010735225256     0.78006774012099     0.00000000000000     0.25946793736247
   19     0.00000000000000     0.00000000000000     0.75222471241158     0.00000000000000
   20    -3.02174895897394    -0.59530942566185     0.00000000000000    -0.81777476621759
   21    -3.77844289351837    -0.54348778107391     0.00000000000000    -0.74781236815212
   22    -0.54348778107391    -2.91543317203876     0.00000000000000    -0.33898233167732
   23     0.00000000000000     0.00000000000000    -2.65296500757747     0.00000000000000
   24    -0.74781236815212    -0.33898233167732     0.00000000000000    -3.11313738827364




	There are 0 unique integrals

  ## Fock (Symmetry 0) ##
  Irrep: 1 Size: 24 x 24

                 1                   2                   3                   4                   5

    1    -3.63605938662991    -0.40451219390271    -0.20120148645117    -0.00000000000000     0.28319631011499
    2    -0.40451219390271    -2.41608988625884     0.04222702508486     0.00000000000000    -0.03345913207382
    3    -0.20120148645117     0.04222702508486    -2.37667749921959    -0.00000000000000    -0.10041667711708
    4    -0.00000000000000     0.00000000000000    -0.00000000000000    -2.46280592025057    -0.00000000000000
    5     0.28319631011499    -0.03345913207382    -0.10041667711708    -0.00000000000000    -2.32951789918603
    6     0.00269609413789    -0.37145544407223    -0.27917027396581     0.00000000000000     0.31891823534477
    7    -0.04308241047822    -0.17427534670767    -0.18484251304722    -0.00000000000000     0.20175969207034
    8    -0.22575100042953    -0.65900649769576    -0.41468426761434     0.00000000000000     0.60145997240640
    9     0.07317654290412     0.04758345540027     0.13498248841402    -0.00000000000000    -0.26475428091000
   10     0.00000000000000    -0.00000000000000     0.00000000000000    -0.07848233819915     0.00000000000000
   11    -0.09486837386354    -0.10351921767799    -0.27197295310097    -0.00000000000000     0.27435967650367
   12     0.24278595106038     0.12350121916892     0.01774961767303     0.00000000000000    -0.43057207951379
   13     0.00000000000000    -0.00000000000000     0.00000000000000    -0.27007567935908     0.00000000000000
   14    -0.30256128957414    -0.27774784108381    -0.45396753091859     0.00000000000000     0.27971482725873
   15    -0.05286741082778     0.00463284975385     0.23547520829684     0.00000000000000     0.24850857408631
   16     0.00000000000000    -0.00000000000000    -0.00000000000000     0.25049384271564     0.00000000000000
   17     0.35718073539592     0.08333758628425     0.22995296925207    -0.00000000000000    -0.41992744718371
   18     0.24256936982532     0.00324410817595     0.30987255138860    -0.00000000000000    -0.12812694070623
   19    -0.00000000000000    -0.00000000000000     0.00000000000000    -0.30678983412189     0.00000000000000
   20     0.00499633048744    -0.05867390636219    -0.08168118551077     0.00000000000000    -0.05135500071377
   21    -0.05867390636219    -0.29778794648875    -0.06081069622046    -0.00000000000000     0.14983545486459
   22    -0.08168118551077    -0.06081069622046    -0.05943033593799     0.00000000000000     0.02759036395161
   23     0.00000000000000    -0.00000000000000    -0.00000000000000     0.04732664234860     0.00000000000000
   24     0.05135500071378    -0.14983545486459    -0.02759036395161     0.00000000000000     0.05439560690656

                 6                   7                   8                   9                  10

    1     0.00269609413790    -0.04308241047822    -0.22575100042953     0.07317654290412     0.00000000000000
    2    -0.37145544407222    -0.17427534670767    -0.65900649769576     0.04758345540027    -0.00000000000000
    3    -0.27917027396581    -0.18484251304722    -0.41468426761434     0.13498248841402     0.00000000000000
    4     0.00000000000000    -0.00000000000000     0.00000000000000    -0.00000000000000    -0.07848233819915
    5     0.31891823534477     0.20175969207035     0.60145997240640    -0.26475428091000     0.00000000000000
    6   -31.45512578408245     4.59506302999589    -3.87746907838727    -0.01754014053578     0.00000000000000
    7     4.59506302999592    -8.63972084445097    -1.01011967299143     0.06620628605683     0.00000000000000
    8    -3.87746907838729    -1.01011967299143    -4.39561446546525    -0.03164157531047     0.00000000000000
    9    -0.01754014053578     0.06620628605683    -0.03164157531047    -8.25029737260725    -0.00000000000000
   10     0.00000000000000     0.00000000000000     0.00000000000000    -0.00000000000000    -8.23976399474757
   11     0.00000000000000     0.00000000000001     0.00000000000000     0.00000000000000     0.00000000000000
   12     0.07397077652609     0.00296959874702    -0.27528577133143    -0.58232946094994     0.00000000000000
   13    -0.00000000000001     0.00000000000000    -0.00000000000000     0.00000000000000    -0.62100881665071
   14     0.00000000000000     0.00000000000000     0.00000000000000    -0.00000000000000    -0.00000000000000
   15    -0.01058226322145    -0.01299823371646     0.05221830261258     0.08376182300710    -0.00000000000000
   16    -0.00000000000000    -0.00000000000000     0.00000000000000     0.00000000000000     0.07419600315125
   17    -0.00000000000001    -0.00000000000000    -0.00000000000000    -0.00000000000000     0.00000000000000
   18     0.02951330449702     0.05411058006953    -0.26077263265785     0.01631095389134     0.00000000000000
   19    -0.00000000000001     0.00000000000000    -0.00000000000000     0.00000000000000     0.00000000000000
   20     0.00269609413790    -0.04308241047822    -0.22575100042952     0.07317654290412    -0.00000000000000
   21    -0.37145544407224    -0.17427534670767    -0.65900649769576     0.04758345540027     0.00000000000000
   22    -0.27917027396580    -0.18484251304722    -0.41468426761433     0.13498248841401    -0.00000000000000
   23    -0.00000000000000    -0.00000000000000    -0.00000000000000    -0.00000000000000    -0.07848233819915
   24    -0.31891823534476    -0.20175969207035    -0.60145997240640     0.26475428091000     0.00000000000000

                11                  12                  13                  14                  15

    1    -0.09486837386354     0.24278595106038     0.00000000000000    -0.30256128957414    -0.05286741082778
    2    -0.10351921767799     0.12350121916892    -0.00000000000000    -0.27774784108381     0.00463284975385
    3    -0.27197295310097     0.01774961767302     0.00000000000000    -0.45396753091859     0.23547520829684
    4    -0.00000000000000     0.00000000000000    -0.27007567935908     0.00000000000000     0.00000000000000
    5     0.27435967650367    -0.43057207951379     0.00000000000000     0.27971482725873     0.24850857408631
    6     0.00000000000000     0.07397077652609    -0.00000000000001     0.00000000000000    -0.01058226322145
    7     0.00000000000001     0.00296959874702     0.00000000000000     0.00000000000000    -0.01299823371646
    8     0.00000000000000    -0.27528577133143    -0.00000000000000    -0.00000000000000     0.05221830261258
    9     0.00000000000000    -0.58232946094994     0.00000000000000    -0.00000000000000     0.08376182300710
   10     0.00000000000000     0.00000000000000    -0.62100881665071    -0.00000000000000    -0.00000000000000
   11    -8.26329510439530    -0.00000000000001    -0.00000000000000    -0.53116947643398     0.00000000000000
   12    -0.00000000000001    -3.63724194886055    -0.00000000000000     0.00000000000000    -0.05121662639495
   13    -0.00000000000000    -0.00000000000000    -3.81073029489719    -0.00000000000000     0.00000000000000
   14    -0.53116947643398     0.00000000000000    -0.00000000000000    -3.49842698538306     0.00000000000000
   15     0.00000000000000    -0.05121662639495     0.00000000000000     0.00000000000000    -4.05513552497070
   16    -0.00000000000000    -0.00000000000000    -0.01591933802493     0.00000000000000     0.00000000000000
   17     0.03885980621075     0.00000000000000    -0.00000000000000    -0.31965640497162    -0.00000000000000
   18    -0.00000000000000     0.14838496998074     0.00000000000000     0.00000000000000    -0.00824866706292
   19    -0.00000000000000     0.00000000000000    -0.00000000000000    -0.00000000000000    -0.00000000000000
   20     0.09486837386355     0.24278595106038    -0.00000000000000     0.30256128957414    -0.05286741082778
   21     0.10351921767798     0.12350121916892     0.00000000000000     0.27774784108381     0.00463284975385
   22     0.27197295310097     0.01774961767302    -0.00000000000000     0.45396753091859     0.23547520829684
[...]
 0.000000
 610.777096
 631.566636
 633.699065
 634.905535
 654.457725
 656.685272
 671.364051
 672.005634
 687.188370
 687.332370
 690.658470
 695.794985
 697.724608
 702.501323
 705.152963
 708.326598
 712.641192
 717.166376
 748.353128
 749.339285
 751.739349
 764.559514
 772.091434
 a: -4.00000  b:-4.50000

 -2.25340 = (-8.36571 + 3.85891)/2.0
 -579.068576
 31.708521
 52.498060
 54.630489
 55.836959
 75.389149
 77.616696
 92.295475
 92.937058
 108.119794
 108.263794
 111.589894
 116.726409
 118.656033
 123.432748
 126.084387
 129.258022
 133.572617
 138.097800
 169.284552
 170.270709
 172.670774
 185.490938
 193.022859
 sum -  nocc_ = -4.00000000
 On Iteration in Bisection 1
 -579.068576
 31.708521
 52.498060
 54.630489
 55.836959
 75.389149
 77.616696
 92.295475
 92.937058
 108.119794
 108.263794
 111.589894
 116.726409
 118.656033
 123.432748
 126.084387
 129.258022
 133.572617
 138.097800
 169.284552
 170.270709
 172.670774
 185.490938
 193.022859
 -386.045717
 224.731379
 245.520919
 247.653348
 248.859818
 268.412008
 270.639555
 285.318334
 285.959916
 301.142653
 301.286653
 304.612753
 309.749268
 311.678891
 316.455606
 319.107246
 322.280881
 326.595475
 331.120659
 362.307411
 363.293568
 365.693632
 378.513796
 386.045717
 a: -4.00000  b:-4.00000

 0.80276 = (-2.25340 + 3.85891)/2.0
 -675.580005
 -64.802909
 -44.013369
 -41.880940
 -40.674470
 -21.122280
 -18.894733
 -4.215954
 -3.574371
 11.608365
 11.752365
 15.078465
 20.214980
 22.144603
 26.921318
 29.572958
 32.746593
 37.061187
 41.586371
 72.773123
 73.759280
 76.159344
 88.979508
 96.511429
 sum -  nocc_ = 3.95820503
 On Iteration in Bisection 2
 -675.580005
 -64.802909
 -44.013369
 -41.880940
 -40.674470
 -21.122280
 -18.894733
 -4.215954
 -3.574371
 11.608365
 11.752365
 15.078465
 20.214980
 22.144603
 26.921318
 29.572958
 32.746593
 37.061187
 41.586371
 72.773123
 73.759280
 76.159344
 88.979508
 96.511429
 -579.068576
 31.708521
 52.498060
 54.630489
 55.836959
 75.389149
 77.616696
 92.295475
 92.937058
 108.119794
 108.263794
 111.589894
 116.726409
 118.656033
 123.432748
 126.084387
 129.258022
 133.572617
 138.097800
 169.284552
 170.270709
 172.670774
 185.490938
 193.022859
 a: 3.95821  b:-4.00000

 -0.72532 = (-2.25340 + 0.80276)/2.0
 -627.324290
 -16.547194
 4.242346
 6.374774
 7.581245
 27.133435
 29.360982
 44.039760
 44.681343
 59.864080
 60.008080
 63.334180
 68.470695
 70.400318
 75.177033
 77.828673
 81.002308
 85.316902
 89.842085
 121.028838
 122.014994
 124.415059
 137.235223
 144.767144
 sum -  nocc_ = -2.98361913
 On Iteration in Bisection 3
 -627.324290
 -16.547194
 4.242346
 6.374774
 7.581245
 27.133435
 29.360982
 44.039760
 44.681343
 59.864080
 60.008080
 63.334180
 68.470695
 70.400318
 75.177033
 77.828673
 81.002308
 85.316902
 89.842085
 121.028838
 122.014994
 124.415059
 137.235223
 144.767144
 -579.068576
 31.708521
 52.498060
 54.630489
 55.836959
 75.389149
 77.616696
 92.295475
 92.937058
 108.119794
 108.263794
 111.589894
 116.726409
 118.656033
 123.432748
 126.084387
 129.258022
 133.572617
 138.097800
 169.284552
 170.270709
 172.670774
 185.490938
 193.022859
 a: -2.98362  b:-4.00000

 0.03872 = (-0.72532 + 0.80276)/2.0
 -651.452148
 -40.675051
 -19.885512
 -17.753083
 -16.546613
 3.005577
 5.233124
 19.911903
 20.553486
 35.736222
 35.880223
 39.206322
 44.342837
 46.272461
 51.049176
 53.700815
 56.874450
 61.189045
 65.714228
 96.900980
 97.887137
 100.287202
 113.107366
 120.639287
 sum -  nocc_ = 0.05248296
 On Iteration in Bisection 4
 -651.452148
 -40.675051
 -19.885512
 -17.753083
 -16.546613
 3.005577
 5.233124
 19.911903
 20.553486
 35.736222
 35.880223
 39.206322
 44.342837
 46.272461
 51.049176
 53.700815
 56.874450
 61.189045
 65.714228
 96.900980
 97.887137
 100.287202
 113.107366
 120.639287
 -627.324290
 -16.547194
 4.242346
 6.374774
 7.581245
 27.133435
 29.360982
 44.039760
 44.681343
 59.864080
 60.008080
 63.334180
 68.470695
 70.400318
 75.177033
 77.828673
 81.002308
 85.316902
 89.842085
 121.028838
 122.014994
 124.415059
 137.235223
 144.767144
 a: 0.05248  b:-2.98362

 -0.34330 = (-0.72532 + 0.03872)/2.0
 -639.388219
 -28.611123
 -7.821583
 -5.689154
 -4.482684
 15.069506
 17.297053
 31.975832
 32.617415
 47.800151
 47.944151
 51.270251
 56.406766
 58.336389
 63.113104
 65.764744
 68.938379
 73.252973
 77.778157
 108.964909
 109.951066
 112.351130
 125.171294
 132.703215
 sum -  nocc_ = -0.01494826
 On Iteration in Bisection 5
 -639.388219
 -28.611123
 -7.821583
 -5.689154
 -4.482684
 15.069506
 17.297053
 31.975832
 32.617415
 47.800151
 47.944151
 51.270251
 56.406766
 58.336389
 63.113104
 65.764744
 68.938379
 73.252973
 77.778157
 108.964909
 109.951066
 112.351130
 125.171294
 132.703215
 -627.324290
 -16.547194
 4.242346
 6.374774
 7.581245
 27.133435
 29.360982
 44.039760
 44.681343
 59.864080
 60.008080
 63.334180
 68.470695
 70.400318
 75.177033
 77.828673
 81.002308
 85.316902
 89.842085
 121.028838
 122.014994
 124.415059
 137.235223
 144.767144
 a: -0.01495  b:-2.98362

 -0.15229 = (-0.34330 + 0.03872)/2.0
 -645.420183
 -34.643087
 -13.853547
 -11.721119
 -10.514648
 9.037542
 11.265089
 25.943867
 26.585450
 41.768187
 41.912187
 45.238287
 50.374802
 52.304425
 57.081140
 59.732780
 62.906415
 67.221009
 71.746192
 102.932945
 103.919101
 106.319166
 119.139330
 126.671251
 sum -  nocc_ = 0.00009544
 On Iteration in Bisection 6
 -645.420183
 -34.643087
 -13.853547
 -11.721119
 -10.514648
 9.037542
 11.265089
 25.943867
 26.585450
 41.768187
 41.912187
 45.238287
 50.374802
 52.304425
 57.081140
 59.732780
 62.906415
 67.221009
 71.746192
 102.932945
 103.919101
 106.319166
 119.139330
 126.671251
 -639.388219
 -28.611123
 -7.821583
 -5.689154
 -4.482684
 15.069506
 17.297053
 31.975832
 32.617415
 47.800151
 47.944151
 51.270251
 56.406766
 58.336389
 63.113104
 65.764744
 68.938379
 73.252973
 77.778157
 108.964909
 109.951066
 112.351130
 125.171294
 132.703215
 a: 0.00010  b:-0.01495

 -0.24779 = (-0.34330 + -0.15229)/2.0
 -642.404201
 -31.627105
 -10.837565
 -8.705137
 -7.498666
 12.053524
 14.281071
 28.959849
 29.601432
 44.784169
 44.928169
 48.254269
 53.390784
 55.320407
 60.097122
 62.748762
 65.922397
 70.236991
 74.762175
 105.948927
 106.935084
 109.335148
 122.155312
 129.687233
 sum -  nocc_ = -0.00073242
 On Iteration in Bisection 7
 -642.404201
 -31.627105
 -10.837565
 -8.705137
 -7.498666
 12.053524
 14.281071
 28.959849
 29.601432
 44.784169
 44.928169
 48.254269
 53.390784
 55.320407
 60.097122
 62.748762
 65.922397
 70.236991
 74.762175
 105.948927
 106.935084
 109.335148
 122.155312
 129.687233
 -639.388219
 -28.611123
 -7.821583
 -5.689154
 -4.482684
 15.069506
 17.297053
 31.975832
 32.617415
 47.800151
 47.944151
 51.270251
 56.406766
 58.336389
 63.113104
 65.764744
 68.938379
 73.252973
 77.778157
 108.964909
 109.951066
 112.351130
 125.171294
 132.703215
 a: -0.00073  b:-0.01495

 -0.20004 = (-0.24779 + -0.15229)/2.0
 -643.912192
 -33.135096
 -12.345556
 -10.213128
 -9.006657
 10.545533
 12.773080
 27.451858
 28.093441
 43.276178
 43.420178
 46.746278
 51.882793
 53.812416
 58.589131
 61.240771
 64.414406
 68.729000
 73.254183
 104.440936
 105.427092
 107.827157
 120.647321
 128.179242
 sum -  nocc_ = -0.00013446
 On Iteration in Bisection 8
 -643.912192
 -33.135096
 -12.345556
 -10.213128
 -9.006657
 10.545533
 12.773080
 27.451858
 28.093441
 43.276178
 43.420178
 46.746278
 51.882793
 53.812416
 58.589131
 61.240771
 64.414406
 68.729000
 73.254183
 104.440936
 105.427092
 107.827157
 120.647321
 128.179242
 -642.404201
 -31.627105
 -10.837565
 -8.705137
 -7.498666
 12.053524
 14.281071
 28.959849
 29.601432
 44.784169
 44.928169
 48.254269
 53.390784
 55.320407
 60.097122
 62.748762
 65.922397
 70.236991
 74.762175
 105.948927
 106.935084
 109.335148
 122.155312
 129.687233
 a: -0.00013  b:-0.00073

 -0.17617 = (-0.20004 + -0.15229)/2.0
 -644.666188
 -33.889091
 -13.099552
 -10.967123
 -9.760653
 9.791537
 12.019084
 26.697863
 27.339446
 42.522182
 42.666182
 45.992282
 51.128797
 53.058421
 57.835136
 60.486775
 63.660410
 67.975004
 72.500188
 103.686940
 104.673097
 107.073162
 119.893326
 127.425246
 sum -  nocc_ = -0.00001503
 On Iteration in Bisection 9
 -644.666188
 -33.889091
 -13.099552
 -10.967123
 -9.760653
 9.791537
 12.019084
 26.697863
 27.339446
 42.522182
 42.666182
 45.992282
 51.128797
 53.058421
 57.835136
 60.486775
 63.660410
 67.975004
 72.500188
 103.686940
 104.673097
 107.073162
 119.893326
 127.425246
 -643.912192
 -33.135096
 -12.345556
 -10.213128
 -9.006657
 10.545533
 12.773080
 27.451858
 28.093441
 43.276178
 43.420178
 46.746278
 51.882793
 53.812416
 58.589131
 61.240771
 64.414406
 68.729000
 73.254183
 104.440936
 105.427092
 107.827157
 120.647321
 128.179242
 a: -0.00002  b:-0.00013

 -0.16423 = (-0.17617 + -0.15229)/2.0
 -645.043186
 -34.266089
 -13.476550
 -11.344121
 -10.137650
 9.414539
 11.642086
 26.320865
 26.962448
 42.145184
 42.289185
 45.615284
 50.751799
 52.681423
 57.458138
 60.109777
 63.283413
 67.598007
 72.123190
 103.309942
 104.296099
 106.696164
 119.516328
 127.048249
 sum -  nocc_ = 0.00003751
 On Iteration in Bisection 10
 -645.043186
 -34.266089
 -13.476550
 -11.344121
 -10.137650
 9.414539
 11.642086
 26.320865
 26.962448
 42.145184
 42.289185
 45.615284
 50.751799
 52.681423
 57.458138
 60.109777
 63.283413
 67.598007
 72.123190
 103.309942
 104.296099
 106.696164
 119.516328
 127.048249
 -644.666188
 -33.889091
 -13.099552
 -10.967123
 -9.760653
 9.791537
 12.019084
 26.697863
 27.339446
 42.522182
 42.666182
 45.992282
 51.128797
 53.058421
 57.835136
 60.486775
 63.660410
 67.975004
 72.500188
 103.686940
 104.673097
 107.073162
 119.893326
 127.425246
 a: 0.00004  b:-0.00002

 -0.17020 = (-0.17617 + -0.16423)/2.0
 -644.854687
 -34.077590
 -13.288051
 -11.155622
 -9.949152
 9.603038
 11.830585
 26.509364
 27.150947
 42.333683
 42.477683
 45.803783
 50.940298
 52.869922
 57.646637
 60.298276
 63.471911
 67.786506
 72.311689
 103.498441
 104.484598
 106.884663
 119.704827
 127.236748
 sum -  nocc_ = 0.00001104
 On Iteration in Bisection 11
 -644.854687
 -34.077590
 -13.288051
 -11.155622
 -9.949152
 9.603038
 11.830585
 26.509364
 27.150947
 42.333683
 42.477683
 45.803783
 50.940298
 52.869922
 57.646637
 60.298276
 63.471911
 67.786506
 72.311689
 103.498441
 104.484598
 106.884663
 119.704827
 127.236748
 -644.666188
 -33.889091
 -13.099552
 -10.967123
 -9.760653
 9.791537
 12.019084
 26.697863
 27.339446
 42.522182
 42.666182
 45.992282
 51.128797
 53.058421
 57.835136
 60.486775
 63.660410
 67.975004
 72.500188
 103.686940
 104.673097
 107.073162
 119.893326
 127.425246
 a: 0.00001  b:-0.00002

 -0.17318 = (-0.17617 + -0.17020)/2.0
 -644.760437
 -33.983341
 -13.193801
 -11.061373
 -9.854902
 9.697288
 11.924835
 26.603613
 27.245196
 42.427933
 42.571933
 45.898033
 51.034548
 52.964171
 57.740886
 60.392526
 63.566161
 67.880755
 72.405939
 103.592691
 104.578847
 106.978912
 119.799076
 127.330997
 sum -  nocc_ = -0.00000199
 On Iteration in Bisection 12
 -644.760437
 -33.983341
 -13.193801
 -11.061373
 -9.854902
 9.697288
 11.924835
 26.603613
 27.245196
 42.427933
 42.571933
 45.898033
 51.034548
 52.964171
 57.740886
 60.392526
 63.566161
 67.880755
 72.405939
 103.592691
 104.578847
 106.978912
 119.799076
 127.330997
 -644.666188
 -33.889091
 -13.099552
 -10.967123
 -9.760653
 9.791537
 12.019084
 26.697863
 27.339446
 42.522182
 42.666182
 45.992282
 51.128797
 53.058421
 57.835136
 60.486775
 63.660410
 67.975004
 72.500188
 103.686940
 104.673097
 107.073162
 119.893326
 127.425246
 a: -0.00000  b:-0.00002

 -0.17169 = (-0.17318 + -0.17020)/2.0
 -644.807562
 -34.030466
 -13.240926
 -11.108497
 -9.902027
 9.650163
 11.877710
 26.556489
 27.198072
 42.380808
 42.524808
 45.850908
 50.987423
 52.917046
 57.693761
 60.345401
 63.519036
 67.833630
 72.358814
 103.545566
 104.531723
 106.931787
 119.751952
 127.283872
 sum -  nocc_ = 0.00000452
 On Iteration in Bisection 13
 -644.807562
 -34.030466
 -13.240926
 -11.108497
 -9.902027
 9.650163
 11.877710
 26.556489
 27.198072
 42.380808
 42.524808
 45.850908
 50.987423
 52.917046
 57.693761
 60.345401
 63.519036
 67.833630
 72.358814
 103.545566
 104.531723
 106.931787
 119.751952
 127.283872
 -644.760437
 -33.983341
 -13.193801
 -11.061373
 -9.854902
 9.697288
 11.924835
 26.603613
 27.245196
 42.427933
 42.571933
 45.898033
 51.034548
 52.964171
 57.740886
 60.392526
 63.566161
 67.880755
 72.405939
 103.592691
 104.578847
 106.978912
 119.799076
 127.330997
 a: 0.00000  b:-0.00000

 -0.17244 = (-0.17318 + -0.17169)/2.0
 -644.784000
 -34.006903
 -13.217364
 -11.084935
 -9.878464
 9.673725
 11.901272
 26.580051
 27.221634
 42.404370
 42.548371
 45.874470
 51.010985
 52.940609
 57.717324
 60.368963
 63.542599
 67.857193
 72.382376
 103.569128
 104.555285
 106.955350
 119.775514
 127.307435
 sum -  nocc_ = 0.00000127
 On Iteration in Bisection 14
 -644.784000
 -34.006903
 -13.217364
 -11.084935
 -9.878464
 9.673725
 11.901272
 26.580051
 27.221634
 42.404370
 42.548371
 45.874470
 51.010985
 52.940609
 57.717324
 60.368963
 63.542599
 67.857193
 72.382376
 103.569128
 104.555285
 106.955350
 119.775514
 127.307435
 -644.760437
 -33.983341
 -13.193801
 -11.061373
 -9.854902
 9.697288
 11.924835
 26.603613
 27.245196
 42.427933
 42.571933
 45.898033
 51.034548
 52.964171
 57.740886
 60.392526
 63.566161
 67.880755
 72.405939
 103.592691
 104.578847
 106.978912
 119.799076
 127.330997
 a: 0.00000  b:-0.00000

 -0.17281 = (-0.17318 + -0.17244)/2.0
 -644.772218
 -33.995122
 -13.205583
 -11.073154
 -9.866683
 9.685507
 11.913053
 26.591832
 27.233415
 42.416152
 42.560152
 45.886252
 51.022766
 52.952390
 57.729105
 60.380745
 63.554380
 67.868974
 72.394157
 103.580910
 104.567066
 106.967131
 119.787295
 127.319216
 sum -  nocc_ = -0.00000036
 On Iteration in Bisection 15
 -644.772218
 -33.995122
 -13.205583
 -11.073154
 -9.866683
 9.685507
 11.913053
 26.591832
 27.233415
 42.416152
 42.560152
 45.886252
 51.022766
 52.952390
 57.729105
 60.380745
 63.554380
 67.868974
 72.394157
 103.580910
 104.567066
 106.967131
 119.787295
 127.319216
 -644.760437
 -33.983341
 -13.193801
 -11.061373
 -9.854902
 9.697288
 11.924835
 26.603613
 27.245196
 42.427933
 42.571933
 45.898033
 51.034548
 52.964171
 57.740886
 60.392526
 63.566161
 67.880755
 72.405939
 103.592691
 104.578847
 106.978912
 119.799076
 127.330997
 a: -0.00000  b:-0.00000

 -0.17262 = (-0.17281 + -0.17244)/2.0
 -644.778109
 -34.001013
 -13.211473
 -11.079044
 -9.872574
 9.679616
 11.907163
 26.585942
 27.227525
 42.410261
 42.554261
 45.880361
 51.016876
 52.946499
 57.723214
 60.374854
 63.548489
 67.863083
 72.388267
 103.575019
 104.561176
 106.961240
 119.781404
 127.313325
 sum -  nocc_ = 0.00000045
 On Iteration in Bisection 16
 -644.778109
 -34.001013
 -13.211473
 -11.079044
 -9.872574
 9.679616
 11.907163
 26.585942
 27.227525
 42.410261
 42.554261
 45.880361
 51.016876
 52.946499
 57.723214
 60.374854
 63.548489
 67.863083
 72.388267
 103.575019
 104.561176
 106.961240
 119.781404
 127.313325
 -644.772218
 -33.995122
 -13.205583
 -11.073154
 -9.866683
 9.685507
 11.913053
 26.591832
 27.233415
 42.416152
 42.560152
 45.886252
 51.022766
 52.952390
 57.729105
 60.380745
 63.554380
 67.868974
 72.394157
 103.580910
 104.567066
 106.967131
 119.787295
 127.319216
 a: 0.00000  b:-0.00000

 -0.17272 = (-0.17281 + -0.17262)/2.0
 -644.775164
 -33.998067
 -13.208528
 -11.076099
 -9.869629
 9.682561
 11.910108
 26.588887
 27.230470
 42.413206
 42.557206
 45.883306
 51.019821
 52.949445
 57.726160
 60.377799
 63.551434
 67.866029
 72.391212
 103.577964
 104.564121
 106.964186
 119.784350
 127.316271
 sum -  nocc_ = 0.00000005
 On Iteration in Bisection 17
 -644.775164
 -33.998067
 -13.208528
 -11.076099
 -9.869629
 9.682561
 11.910108
 26.588887
 27.230470
 42.413206
 42.557206
 45.883306
 51.019821
 52.949445
 57.726160
 60.377799
 63.551434
 67.866029
 72.391212
 103.577964
 104.564121
 106.964186
 119.784350
 127.316271
 -644.772218
 -33.995122
 -13.205583
 -11.073154
 -9.866683
 9.685507
 11.913053
 26.591832
 27.233415
 42.416152
 42.560152
 45.886252
 51.022766
 52.952390
 57.729105
 60.380745
 63.554380
 67.868974
 72.394157
 103.580910
 104.567066
 106.967131
 119.787295
 127.319216
 a: 0.00000  b:-0.00000

 -0.17276 = (-0.17281 + -0.17272)/2.0
 -644.773691
 -33.996595
 -13.207055
 -11.074626
 -9.868156
 9.684034
 11.911581
 26.590360
 27.231942
 42.414679
 42.558679
 45.884779
 51.021294
 52.950917
 57.727632
 60.379272
 63.552907
 67.867501
 72.392685
 103.579437
 104.565594
 106.965658
 119.785822
 127.317743
 sum -  nocc_ = -0.00000016
 On Iteration in Bisection 18
 -644.773691
 -33.996595
 -13.207055
 -11.074626
 -9.868156
 9.684034
 11.911581
 26.590360
 27.231942
 42.414679
 42.558679
 45.884779
 51.021294
 52.950917
 57.727632
 60.379272
 63.552907
 67.867501
 72.392685
 103.579437
 104.565594
 106.965658
 119.785822
 127.317743
 -644.772218
 -33.995122
 -13.205583
 -11.073154
 -9.866683
 9.685507
 11.913053
 26.591832
 27.233415
 42.416152
 42.560152
 45.886252
 51.022766
 52.952390
 57.729105
 60.380745
 63.554380
 67.868974
 72.394157
 103.580910
 104.567066
 106.967131
 119.787295
 127.319216
 a: -0.00000  b:-0.00000

 -0.17274 = (-0.17276 + -0.17272)/2.0
 -644.774427
 -33.997331
 -13.207792
 -11.075363
 -9.868892
 9.683298
 11.910844
 26.589623
 27.231206
 42.413943
 42.557943
 45.884043
 51.020557
 52.950181
 57.726896
 60.378536
 63.552171
 67.866765
 72.391948
 103.578701
 104.564857
 106.964922
 119.785086
 127.317007
 sum -  nocc_ = -0.00000005
 On Iteration in Bisection 19
 -644.774427
 -33.997331
 -13.207792
 -11.075363
 -9.868892
 9.683298
 11.910844
 26.589623
 27.231206
 42.413943
 42.557943
 45.884043
 51.020557
 52.950181
 57.726896
 60.378536
 63.552171
 67.866765
 72.391948
 103.578701
 104.564857
 106.964922
 119.785086
 127.317007
 -644.773691
 -33.996595
 -13.207055
 -11.074626
 -9.868156
 9.684034
 11.911581
 26.590360
 27.231942
 42.414679
 42.558679
 45.884779
 51.021294
 52.950917
 57.727632
 60.379272
 63.552907
 67.867501
 72.392685
 103.579437
 104.565594
 106.965658
 119.785822
 127.317743
 a: -0.00000  b:-0.00000

 -0.17273 = (-0.17274 + -0.17272)/2.0
 -644.774796
 -33.997699
 -13.208160
 -11.075731
 -9.869260
 9.682929
 11.910476
 26.589255
 27.230838
 42.413574
 42.557575
 45.883674
 51.020189
 52.949813
 57.726528
 60.378168
 63.551803
 67.866397
 72.391580
 103.578332
 104.564489
 106.964554
 119.784718
 127.316639
 sum -  nocc_ = -0.00000000
 ef = -0.17273 sum = 5.00000 

 Iter: 106  T:    10000.000  val:-0.172727  sumni 0.00000
 ne = 5.0000

 iter:107  failiter:107  energy:    -83.277840342094  total:    -75.943285733784  error:     -0.000000000001
 FTHFEnergy =   -75.943286
 FD_dis[0] = 1.00000000 with -20.590332 eig value
 FD_dis[1] = 1.00000000 with -1.249307 eig value
 FD_dis[2] = 0.99999816 with -0.590980 eig value
 FD_dis[3] = 0.99998452 with -0.523454 eig value
 FD_dis[4] = 0.99994826 with -0.485249 eig value
 FD_dis[5] = 0.00006233 with 0.133895 eig value
 FD_dis[6] = 0.00000672 with 0.204433 eig value
 FD_dis[7] = 0.00000000 with 0.669255 eig value
 FD_dis[8] = 0.00000000 with 0.689572 eig value
 FD_dis[9] = 0.00000000 with 1.170352 eig value
 FD_dis[10] = 0.00000000 with 1.174912 eig value
 FD_dis[11] = 0.00000000 with 1.280237 eig value
 FD_dis[12] = 0.00000000 with 1.442892 eig value
 FD_dis[13] = 0.00000000 with 1.503996 eig value
 FD_dis[14] = 0.00000000 with 1.655256 eig value
 FD_dis[15] = 0.00000000 with 1.739224 eig value
 FD_dis[16] = 0.00000000 with 1.839721 eig value
 FD_dis[17] = 0.00000000 with 1.976348 eig value
 FD_dis[18] = 0.00000000 with 2.119644 eig value
 FD_dis[19] = 0.00000000 with 3.107211 eig value
 FD_dis[20] = 0.00000000 with 3.138439 eig value
 FD_dis[21] = 0.00000000 with 3.214440 eig value
 FD_dis[22] = 0.00000000 with 3.620407 eig value
 FD_dis[23] = 0.00000000 with 3.858915 eig value
*** PSI4 exiting successfully. Buy a developer a beer!
