    -----------------------------------------------------------------------
          PSI4: An Open-Source Ab Initio Electronic Structure Package
                              PSI 4.0 Driver

               Git: Rev {master} 556e8139d3cfa1f96ccffe2cdf22cc56a185d2b2

    J. M. Turney, A. C. Simmonett, R. M. Parrish, E. G. Hohenstein,
    F. A. Evangelista, J. T. Fermann, B. J. Mintz, L. A. Burns, J. J. Wilke,
    M. L. Abrams, N. J. Russ, M. L. Leininger, C. L. Janssen, E. T. Seidl,
    W. D. Allen, H. F. Schaefer, R. A. King, E. F. Valeev, C. D. Sherrill,
    and T. D. Crawford, WIREs Comput. Mol. Sci. 2, 556-565 (2012)
    (doi: 10.1002/wcms.93)

                         Additional Contributions by
    A. E. DePrince, M. Saitow, U. Bozkaya, A. Yu. Sokolov
    -----------------------------------------------------------------------

    Process ID:  14569
    PSI4DATADIR: /Users/kevinhannon/Programs/psi4cmake/psi4/lib
    Memory level set to 256.000 MB

  ==> Input File <==

--------------------------------------------------------------------------

# PYTHONPATH must include directory above plugin directory.
#     Define either externally or here, then import plugin.
sys.path.insert(0, '/Users/kevinhannon/Programs/Quantum_Programs/Quantum-Programs/GS/')
import scf

molecule {
0 1
H
H 1 1.80000
symmetry c1
units angstrom
}


set {
  basis cc-pvdz
  reference rhf
  scf_type  pk
}

set scf {
  DO_FTHF true
  MAX_ITER 130
  MAX_TEMP 20000
  TEMP_INCREMENT 0
  bisect  true
  bisect_iter  40
}
energy('rhf')
energy('scf')


--------------------------------------------------------------------------

*** tstart() called on Kevins-MacBook-Pro.local
*** at Sun Apr 12 15:46:02 2015

/Users/kevinhannon/Programs/Quantum_Programs/Quantum-Programs/GS/scf/scf.so loaded.

*** tstart() called on Kevins-MacBook-Pro.local
*** at Sun Apr 12 15:46:02 2015


         ---------------------------------------------------------
                                   SCF
            by Justin Turney, Rob Parrish, and Andy Simmonett
                              RHF Reference
                        1 Threads,    256 MiB Core
         ---------------------------------------------------------

  ==> Geometry <==

    Molecular point group: c1
    Full point group: D_inf_h

    Geometry (in Angstrom), charge = 0, multiplicity = 1:

       Center              X                  Y                   Z       
    ------------   -----------------  -----------------  -----------------
           H          0.000000000000     0.000000000000    -0.900000000000
           H          0.000000000000     0.000000000000     0.900000000000

  Running in c1 symmetry.

  Rotational constants: A = ************  B =     10.32515  C =     10.32515 [cm^-1]
  Rotational constants: A = ************  B = 309540.18687  C = 309540.18687 [MHz]
  Nuclear repulsion =    0.293987338105556

  Charge       = 0
  Multiplicity = 1
  Electrons    = 2
  Nalpha       = 1
  Nbeta        = 1

  ==> Algorithm <==

  SCF Algorithm Type is PK.
  DIIS enabled.
  MOM disabled.
  Fractional occupation disabled.
  Guess Type is CORE.
  Energy threshold   = 1.00e-06
  Density threshold  = 1.00e-06
  Integral threshold = 0.00e+00

  ==> Primary Basis <==

  Basis Set: CC-PVDZ
    Number of shells: 6
    Number of basis function: 10
    Number of Cartesian functions: 10
    Spherical Harmonics?: true
    Max angular momentum: 1

  ==> Pre-Iterations <==

   -------------------------------------------------------
    Irrep   Nso     Nmo     Nalpha   Nbeta   Ndocc  Nsocc
   -------------------------------------------------------
     A         10      10       0       0       0       0
   -------------------------------------------------------
    Total      10      10       1       1       1       0
   -------------------------------------------------------

  Starting with a DF guess...

 OEINTS: Overlap, kinetic, potential, dipole, and quadrupole integrals
         stored in file 35.

  ==> Integral Setup <==

  ==> DFJK: Density-Fitted J/K Matrices <==

    J tasked:                  Yes
    K tasked:                  Yes
    wK tasked:                  No
    OpenMP threads:              1
    Integrals threads:           1
    Memory (MB):               183
    Algorithm:                Core
    Integral Cache:           NONE
    Schwarz Cutoff:          1E-12
    Fitting Condition:       1E-12

   => Auxiliary Basis Set <=

  Basis Set: 
    Number of shells: 18
    Number of basis function: 46
    Number of Cartesian functions: 50
    Spherical Harmonics?: true
    Max angular momentum: 2

  Minimum eigenvalue in the overlap matrix is 2.0189459176E-01.
  Using Symmetric Orthogonalization.
  SCF Guess: Core (One-Electron) Hamiltonian.

  ==> Iterations <==

                           Total Energy        Delta E     RMS |[F,P]|

   @DF-RHF iter   1:    -0.92680566910900   -9.26806e-01   1.51261e-02 
   @DF-RHF iter   2:    -0.95020794771173   -2.34023e-02   2.59626e-03 DIIS
   @DF-RHF iter   3:    -0.95094537072734   -7.37423e-04   8.95624e-05 DIIS
   @DF-RHF iter   4:    -0.95094606636845   -6.95641e-07   5.53276e-07 DIIS

  DF guess converged.

  ==> Integral Setup <==

 MINTS: Wrapper to libmints.
   by Justin Turney

   Calculation information:
      Number of atoms:                   2
      Number of AO shells:               6
      Number of SO shells:               6
      Number of primitives:             10
      Number of atomic orbitals:        10
      Number of basis functions:        10

      Number of irreps:                  1
      Integral cutoff                 0.00e+00
      Number of functions per irrep: [  10 ]

 OEINTS: Overlap, kinetic, potential, dipole, and quadrupole integrals
         stored in file 35.

      Computing two-electron integrals...done
      Computed 512 non-zero two-electron integrals.
        Stored in file 33.

	Batch   1 pq = [       0,      55] index = [             0,1540]
  ==> DiskJK: Disk-Based J/K Matrices <==

    J tasked:                  Yes
    K tasked:                  Yes
    wK tasked:                  No
    Memory (MB):               183
    Schwarz Cutoff:          1E-12

   @RHF iter   5:    -0.95093935689197    6.70948e-06   1.75338e-06 DIIS
   @RHF iter   6:    -0.95093935722217   -3.30204e-10   3.17617e-07 DIIS

  ==> Post-Iterations <==

    Orbital Energies (a.u.)
    -----------------------

    Doubly Occupied:                                                      

       1A     -0.404465  

    Virtual:                                                              

       2A     -0.009150     3A      0.655217     4A      0.675752  
       5A      1.276283     6A      1.435497     7A      1.435497  
       8A      1.532930     9A      1.532930    10A      1.850442  

    Final Occupation by Irrep:
              A 
    DOCC [     1 ]

  Energy converged.

  @RHF Final Energy:    -0.95093935722217

   => Energetics <=

    Nuclear Repulsion Energy =              0.2939873381055556
    One-Electron Energy =                  -1.6809226436985478
    Two-Electron Energy =                   0.4359959483708208
    DFT Exchange-Correlation Energy =       0.0000000000000000
    Empirical Dispersion Energy =           0.0000000000000000
    PCM Polarization Energy =               0.0000000000000000
    EFP Energy =                            0.0000000000000000
    Total Energy =                         -0.9509393572221714

    Alert: EFP and PCM quantities not currently incorporated into SCF psivars.

Properties will be evaluated at   0.000000,   0.000000,   0.000000 Bohr
  ==> Properties <==


Properties computed using the SCF density matrix

  Nuclear Dipole Moment: (a.u.)
     X:     0.0000      Y:     0.0000      Z:     0.0000

  Electronic Dipole Moment: (a.u.)
     X:    -0.0000      Y:    -0.0000      Z:     0.0000

  Dipole Moment: (a.u.)
     X:    -0.0000      Y:    -0.0000      Z:     0.0000     Total:     0.0000

  Dipole Moment: (Debye)
     X:    -0.0000      Y:    -0.0000      Z:     0.0000     Total:     0.0000


  Saving occupied orbitals to File 180.

*** tstop() called on Kevins-MacBook-Pro.local at Sun Apr 12 15:46:02 2015
Module time:
	user time   =       0.20 seconds =       0.00 minutes
	system time =       0.01 seconds =       0.00 minutes
	total time  =          0 seconds =       0.00 minutes
Total time:
	user time   =       0.22 seconds =       0.00 minutes
	system time =       0.01 seconds =       0.00 minutes
	total time  =          0 seconds =       0.00 minutes

*** tstart() called on Kevins-MacBook-Pro.local
*** at Sun Apr 12 15:46:02 2015


         ---------------------------------------------------------
                                   SCF
            by Justin Turney, Rob Parrish, and Andy Simmonett
                              RHF Reference
                        1 Threads,    256 MiB Core
         ---------------------------------------------------------

  ==> Geometry <==

    Molecular point group: c1
    Full point group: D_inf_h

    Geometry (in Angstrom), charge = 0, multiplicity = 1:

       Center              X                  Y                   Z       
    ------------   -----------------  -----------------  -----------------
           H          0.000000000000     0.000000000000    -0.900000000000
           H          0.000000000000     0.000000000000     0.900000000000

  Running in c1 symmetry.

  Rotational constants: A = ************  B =     10.32515  C =     10.32515 [cm^-1]
  Rotational constants: A = ************  B = 309540.18687  C = 309540.18687 [MHz]
  Nuclear repulsion =    0.293987338105556

  Charge       = 0
  Multiplicity = 1
  Electrons    = 2
  Nalpha       = 1
  Nbeta        = 1

  ==> Algorithm <==

  SCF Algorithm Type is PK.
  DIIS enabled.
  MOM disabled.
  Fractional occupation disabled.
  Guess Type is CORE.
  Energy threshold   = 1.00e-08
  Density threshold  = 1.00e-08
  Integral threshold = 0.00e+00

  ==> Primary Basis <==

  Basis Set: CC-PVDZ
    Number of shells: 6
    Number of basis function: 10
    Number of Cartesian functions: 10
    Spherical Harmonics?: true
    Max angular momentum: 1

  ==> Pre-Iterations <==

   -------------------------------------------------------
    Irrep   Nso     Nmo     Nalpha   Nbeta   Ndocc  Nsocc
   -------------------------------------------------------
     A         10      10       0       0       0       0
   -------------------------------------------------------
    Total      10      10       1       1       1       0
   -------------------------------------------------------

  Starting with a DF guess...

 OEINTS: Overlap, kinetic, potential, dipole, and quadrupole integrals
         stored in file 35.

  ==> Integral Setup <==

  ==> DFJK: Density-Fitted J/K Matrices <==

    J tasked:                  Yes
    K tasked:                  Yes
    wK tasked:                  No
    OpenMP threads:              1
    Integrals threads:           1
    Memory (MB):               183
    Algorithm:                Core
    Integral Cache:           NONE
    Schwarz Cutoff:          1E-12
    Fitting Condition:       1E-12

   => Auxiliary Basis Set <=

  Basis Set: 
    Number of shells: 18
    Number of basis function: 46
    Number of Cartesian functions: 50
    Spherical Harmonics?: true
    Max angular momentum: 2

  Minimum eigenvalue in the overlap matrix is 2.0189459176E-01.
  Using Symmetric Orthogonalization.
  SCF Guess: Core (One-Electron) Hamiltonian.

  ==> Iterations <==

                           Total Energy        Delta E     RMS |[F,P]|

   @DF-RHF iter   1:    -0.92680566910900   -9.26806e-01   1.51261e-02 
   @DF-RHF iter   2:    -0.95020794771173   -2.34023e-02   2.59626e-03 DIIS
   @DF-RHF iter   3:    -0.95094537072734   -7.37423e-04   8.95624e-05 DIIS
   @DF-RHF iter   4:    -0.95094606636845   -6.95641e-07   5.53276e-07 DIIS
   @DF-RHF iter   5:    -0.95094606639752   -2.90721e-11   1.80231e-11 DIIS

  DF guess converged.

  ==> Integral Setup <==

 MINTS: Wrapper to libmints.
   by Justin Turney

   Calculation information:
      Number of atoms:                   2
      Number of AO shells:               6
      Number of SO shells:               6
      Number of primitives:             10
      Number of atomic orbitals:        10
      Number of basis functions:        10

      Number of irreps:                  1
      Integral cutoff                 0.00e+00
      Number of functions per irrep: [  10 ]

 OEINTS: Overlap, kinetic, potential, dipole, and quadrupole integrals
         stored in file 35.

      Computing two-electron integrals...done
      Computed 512 non-zero two-electron integrals.
        Stored in file 33.

	Batch   1 pq = [       0,      55] index = [             0,1540]
  ==> DiskJK: Disk-Based J/K Matrices <==

    J tasked:                  Yes
    K tasked:                  Yes
    wK tasked:                  No
    Memory (MB):               183
    Schwarz Cutoff:          1E-12

   @RHF iter   6:    -0.95093935689196    6.70951e-06   1.75340e-06 DIIS
   @RHF iter   7:    -0.95093935722217   -3.30211e-10   3.17620e-07 DIIS
   @RHF iter   8:    -0.95093935723361   -1.14386e-11   8.47319e-09 DIIS

  ==> Post-Iterations <==

    Orbital Energies (a.u.)
    -----------------------

    Doubly Occupied:                                                      

       1A     -0.404465  

    Virtual:                                                              

       2A     -0.009150     3A      0.655217     4A      0.675752  
       5A      1.276283     6A      1.435497     7A      1.435497  
       8A      1.532930     9A      1.532930    10A      1.850442  

    Final Occupation by Irrep:
              A 
    DOCC [     1 ]

  Energy converged.

  @RHF Final Energy:    -0.95093935723361

   => Energetics <=

    Nuclear Repulsion Energy =              0.2939873381055556
    One-Electron Energy =                  -1.6809235476068416
    Two-Electron Energy =                   0.4359968522676751
    DFT Exchange-Correlation Energy =       0.0000000000000000
    Empirical Dispersion Energy =           0.0000000000000000
    PCM Polarization Energy =               0.0000000000000000
    EFP Energy =                            0.0000000000000000
    Total Energy =                         -0.9509393572336109

    Alert: EFP and PCM quantities not currently incorporated into SCF psivars.

Properties will be evaluated at   0.000000,   0.000000,   0.000000 Bohr
  ==> Properties <==


Properties computed using the SCF density matrix

  Nuclear Dipole Moment: (a.u.)
     X:     0.0000      Y:     0.0000      Z:     0.0000

  Electronic Dipole Moment: (a.u.)
     X:    -0.0000      Y:     0.0000      Z:     0.0000

  Dipole Moment: (a.u.)
     X:    -0.0000      Y:     0.0000      Z:     0.0000     Total:     0.0000

  Dipole Moment: (Debye)
     X:    -0.0000      Y:     0.0000      Z:     0.0000     Total:     0.0000


  Saving occupied orbitals to File 180.

*** tstop() called on Kevins-MacBook-Pro.local at Sun Apr 12 15:46:02 2015
Module time:
	user time   =       0.20 seconds =       0.00 minutes
	system time =       0.01 seconds =       0.00 minutes
	total time  =          0 seconds =       0.00 minutes
Total time:
	user time   =       0.43 seconds =       0.01 minutes
	system time =       0.02 seconds =       0.00 minutes
	total time  =          0 seconds =       0.00 minutes
Reading options from the SCF block
Calling plugin scf.so.
    Molecular point group: c1
    Full point group: D_inf_h

    Geometry (in Angstrom), charge = 0, multiplicity = 1:

       Center              X                  Y                   Z       
    ------------   -----------------  -----------------  -----------------
           H          0.000000000000     0.000000000000    -0.900000000000
           H          0.000000000000     0.000000000000     0.900000000000


    Nuclear repulsion energy:       0.29398734

  ## Overlap (Symmetry 0) ##
  Irrep: 1 Size: 10 x 10

                 1                   2                   3                   4                   5

    1     1.00000000000000     0.68486025149275     0.00000000000000     0.00000000000000     0.00000000000000
    2     0.68486025149275     1.00000000000000     0.00000000000000     0.00000000000000     0.00000000000000
    3     0.00000000000000     0.00000000000000     1.00000000000000     0.00000000000000     0.00000000000000
    4     0.00000000000000     0.00000000000000     0.00000000000000     1.00000000000000     0.00000000000000
    5     0.00000000000000     0.00000000000000     0.00000000000000     0.00000000000000     1.00000000000000
    6     0.05459186133257     0.22104805109486     0.07217822986417     0.00000000000000     0.00000000000000
    7     0.22104805109486     0.49372072364963     0.14624468383459     0.00000000000000     0.00000000000000
    8    -0.07217822986417    -0.14624468383459    -0.11049959947214     0.00000000000000     0.00000000000000
    9     0.00000000000000     0.00000000000000     0.00000000000000     0.01490906405645     0.00000000000000
   10     0.00000000000000     0.00000000000000     0.00000000000000     0.00000000000000     0.01490906405645

                 6                   7                   8                   9                  10

    1     0.05459186133257     0.22104805109486    -0.07217822986417     0.00000000000000     0.00000000000000
    2     0.22104805109486     0.49372072364963    -0.14624468383459     0.00000000000000     0.00000000000000
    3     0.07217822986417     0.14624468383459    -0.11049959947214     0.00000000000000     0.00000000000000
    4     0.00000000000000     0.00000000000000     0.00000000000000     0.01490906405645     0.00000000000000
    5     0.00000000000000     0.00000000000000     0.00000000000000     0.00000000000000     0.01490906405645
    6     1.00000000000000     0.68486025149275    -0.00000000000000     0.00000000000000     0.00000000000000
    7     0.68486025149275     1.00000000000000     0.00000000000000     0.00000000000000     0.00000000000000
    8    -0.00000000000000     0.00000000000000     1.00000000000000     0.00000000000000     0.00000000000000
    9     0.00000000000000     0.00000000000000     0.00000000000000     1.00000000000000     0.00000000000000
   10     0.00000000000000     0.00000000000000     0.00000000000000     0.00000000000000     1.00000000000000



  ## Kinetic (Symmetry 0) ##
  Irrep: 1 Size: 10 x 10

                 1                   2                   3                   4                   5

    1     0.96945722711242     0.20123413106538    -0.00000000000000     0.00000000000000     0.00000000000000
    2     0.20123413106538     0.18300000000000     0.00000000000000     0.00000000000000     0.00000000000000
    3    -0.00000000000000     0.00000000000000     1.81750000000000     0.00000000000000     0.00000000000000
    4     0.00000000000000     0.00000000000000     0.00000000000000     1.81750000000000     0.00000000000000
    5     0.00000000000000     0.00000000000000     0.00000000000000     0.00000000000000     1.81750000000000
    6    -0.03205514836632     0.01585418726033    -0.03394717495551     0.00000000000000     0.00000000000000
    7     0.01585418726033     0.04783867378869     0.03945605840534     0.00000000000000     0.00000000000000
    8     0.03394717495551    -0.03945605840534     0.04585915852752     0.00000000000000     0.00000000000000
    9     0.00000000000000     0.00000000000000     0.00000000000000    -0.01848882527004     0.00000000000000
   10     0.00000000000000     0.00000000000000     0.00000000000000     0.00000000000000    -0.01848882527004

                 6                   7                   8                   9                  10

    1    -0.03205514836632     0.01585418726033     0.03394717495551     0.00000000000000     0.00000000000000
    2     0.01585418726033     0.04783867378869    -0.03945605840534     0.00000000000000     0.00000000000000
    3    -0.03394717495551     0.03945605840534     0.04585915852752     0.00000000000000     0.00000000000000
    4     0.00000000000000     0.00000000000000     0.00000000000000    -0.01848882527004     0.00000000000000
    5     0.00000000000000     0.00000000000000     0.00000000000000     0.00000000000000    -0.01848882527004
    6     0.96945722711242     0.20123413106538     0.00000000000000     0.00000000000000     0.00000000000000
    7     0.20123413106538     0.18300000000000     0.00000000000000     0.00000000000000     0.00000000000000
    8     0.00000000000000     0.00000000000000     1.81750000000000     0.00000000000000     0.00000000000000
    9     0.00000000000000     0.00000000000000     0.00000000000000     1.81750000000000     0.00000000000000
   10     0.00000000000000     0.00000000000000     0.00000000000000     0.00000000000000     1.81750000000000



  ## Potential (Symmetry 0) ##
  Irrep: 1 Size: 10 x 10

                 1                   2                   3                   4                   5

    1    -1.67184800760358    -0.85099511523112    -0.05437408079619     0.00000000000000     0.00000000000000
    2    -0.85099511523112    -0.84622297966397    -0.05099570857588     0.00000000000000     0.00000000000000
    3    -0.05437408079619    -0.05099570857588    -1.21854329811629     0.00000000000000     0.00000000000000
    4     0.00000000000000     0.00000000000000     0.00000000000000    -1.19233061276413     0.00000000000000
    5     0.00000000000000     0.00000000000000     0.00000000000000     0.00000000000000    -1.19233061276413
    6    -0.06506089095815    -0.27010908771204    -0.08295229121716     0.00000000000000     0.00000000000000
    7    -0.27010908771204    -0.44427030799869    -0.16834833329457     0.00000000000000     0.00000000000000
    8     0.08295229121716     0.16834833329457     0.12605308238353     0.00000000000000     0.00000000000000
    9     0.00000000000000     0.00000000000000     0.00000000000000    -0.01546231041791     0.00000000000000
   10     0.00000000000000     0.00000000000000     0.00000000000000     0.00000000000000    -0.01546231041791

                 6                   7                   8                   9                  10

    1    -0.06506089095815    -0.27010908771204     0.08295229121716     0.00000000000000     0.00000000000000
    2    -0.27010908771204    -0.44427030799869     0.16834833329457     0.00000000000000     0.00000000000000
    3    -0.08295229121716    -0.16834833329457     0.12605308238353     0.00000000000000     0.00000000000000
    4     0.00000000000000     0.00000000000000     0.00000000000000    -0.01546231041791     0.00000000000000
    5     0.00000000000000     0.00000000000000     0.00000000000000     0.00000000000000    -0.01546231041791
    6    -1.67184800760358    -0.85099511523112     0.05437408079619     0.00000000000000     0.00000000000000
    7    -0.85099511523112    -0.84622297966397     0.05099570857588     0.00000000000000     0.00000000000000
    8     0.05437408079619     0.05099570857588    -1.21854329811629     0.00000000000000     0.00000000000000
    9     0.00000000000000     0.00000000000000     0.00000000000000    -1.19233061276413     0.00000000000000
   10     0.00000000000000     0.00000000000000     0.00000000000000     0.00000000000000    -1.19233061276413



  ## One Electron Ints (Symmetry 0) ##
  Irrep: 1 Size: 10 x 10

                 1                   2                   3                   4                   5

    1    -0.70239078049116    -0.64976098416574    -0.05437408079619     0.00000000000000     0.00000000000000
    2    -0.64976098416574    -0.66322297966397    -0.05099570857588     0.00000000000000     0.00000000000000
    3    -0.05437408079619    -0.05099570857588     0.59895670188371     0.00000000000000     0.00000000000000
    4     0.00000000000000     0.00000000000000     0.00000000000000     0.62516938723587     0.00000000000000
    5     0.00000000000000     0.00000000000000     0.00000000000000     0.00000000000000     0.62516938723587
    6    -0.09711603932447    -0.25425490045171    -0.11689946617267     0.00000000000000     0.00000000000000
    7    -0.25425490045171    -0.39643163420999    -0.12889227488923     0.00000000000000     0.00000000000000
    8     0.11689946617267     0.12889227488923     0.17191224091104     0.00000000000000     0.00000000000000
    9     0.00000000000000     0.00000000000000     0.00000000000000    -0.03395113568795     0.00000000000000
   10     0.00000000000000     0.00000000000000     0.00000000000000     0.00000000000000    -0.03395113568795

                 6                   7                   8                   9                  10

    1    -0.09711603932447    -0.25425490045171     0.11689946617267     0.00000000000000     0.00000000000000
    2    -0.25425490045171    -0.39643163420999     0.12889227488923     0.00000000000000     0.00000000000000
    3    -0.11689946617267    -0.12889227488923     0.17191224091104     0.00000000000000     0.00000000000000
    4     0.00000000000000     0.00000000000000     0.00000000000000    -0.03395113568795     0.00000000000000
    5     0.00000000000000     0.00000000000000     0.00000000000000     0.00000000000000    -0.03395113568795
    6    -0.70239078049116    -0.64976098416574     0.05437408079619     0.00000000000000     0.00000000000000
    7    -0.64976098416574    -0.66322297966397     0.05099570857588     0.00000000000000     0.00000000000000
    8     0.05437408079619     0.05099570857588     0.59895670188371     0.00000000000000     0.00000000000000
    9     0.00000000000000     0.00000000000000     0.00000000000000     0.62516938723587     0.00000000000000
   10     0.00000000000000     0.00000000000000     0.00000000000000     0.00000000000000     0.62516938723587




	There are 0 unique integrals

  ## Fock (Symmetry 0) ##
  Irrep: 1 Size: 10 x 10

                 1                   2                   3                   4                   5

    1    -0.46417331528567    -0.35963996088370    -0.05923963045253     0.00000000000000     0.00000000000000
    2    -0.35963996088370    -0.32257443460650     0.06336871651011    -0.00000000000000     0.00000000000000
    3    -0.05923963045253     0.06336871651011     0.66053279123595     0.00000000000000     0.00000000000000
    4     0.00000000000000    -0.00000000000000     0.00000000000000     0.62581467309773     0.00000000000000
    5     0.00000000000000     0.00000000000000     0.00000000000000     0.00000000000000     0.62581467309773
    6     0.01203307240091    -0.03537219536238    -0.03476183406651    -0.00000000000000     0.00000000000000
    7    -0.03537219536238    -0.11125575235078    -0.15211233607319    -0.00000000000000     0.00000000000000
    8     0.03476183406651     0.15211233607319     0.25716168119078     0.00000000000000     0.00000000000000
    9    -0.00000000000000    -0.00000000000000    -0.00000000000000    -0.04328144673663     0.00000000000000
   10     0.00000000000000     0.00000000000000     0.00000000000000     0.00000000000000    -0.04328144673663

                 6                   7                   8                   9                  10

    1     0.01203307240091    -0.03537219536238     0.03476183406651    -0.00000000000000     0.00000000000000
    2    -0.03537219536238    -0.11125575235078     0.15211233607319    -0.00000000000000     0.00000000000000
    3    -0.03476183406651    -0.15211233607319     0.25716168119078    -0.00000000000000     0.00000000000000
    4    -0.00000000000000    -0.00000000000000     0.00000000000000    -0.04328144673663     0.00000000000000
    5     0.00000000000000     0.00000000000000     0.00000000000000     0.00000000000000    -0.04328144673663
    6    -0.46417331528567    -0.35963996088370     0.05923963045253    -0.00000000000000     0.00000000000000
    7    -0.35963996088370    -0.32257443460650    -0.06336871651011     0.00000000000000     0.00000000000000
    8     0.05923963045253    -0.06336871651011     0.66053279123595    -0.00000000000000     0.00000000000000
    9    -0.00000000000000     0.00000000000000    -0.00000000000000     0.62581467309773     0.00000000000000
   10     0.00000000000000     0.00000000000000     0.00000000000000     0.00000000000000     0.62581467309773



  ## C (Symmetry 0) ##
  Irrep: 1 Size: 10 x 10

                 1                   2                   3                   4                   5

    1    -0.33893075076572    -0.40911063079166    -0.11787899788649     0.02775483349763    -0.00959782451257
    2    -0.54598203025173    -0.34892386211813     0.10526062298892    -0.27334975776388    -0.10206801309721
    3     0.47661016523847    -0.53092572770430     0.00645283102012    -0.07431317959958    -0.05239343547988
    4    -0.40385224559661     0.56378053882489    -0.13834102727788    -0.00527188257110    -0.00000000000000
    5    -0.05449788861243    -0.04719899868088     0.70859474210506    -0.00000000000000     0.00000000000000
    6    -0.02965830563321    -0.03378326387435     0.00000146431216    -0.38429734290934    -0.91841142859932
    7     0.15212486973558     0.18992859925360    -0.02058605064113     1.03268983964161     0.42139520207336
    8    -0.02414100861663    -0.06864891622476     0.00575575804544    -0.03709785916402    -0.72587687013688
    9     0.00301069681334    -0.00420295365488     0.00103132493262     0.70716573167781    -0.00000000000000
   10     0.04349543437045    -0.13858635798407    -0.69728490765846    -0.00000000000000     0.00000000000000

                 6                   7                   8                   9                  10

    1    -0.96812207975790    -0.84781830665916     0.06897462461893     0.02775483349763    -0.02557591225423
    2     1.14479076490162     0.82997827655223     0.02615597491187    -0.27334975776388     0.04655834610195
    3     0.53734868383832    -0.48857540737604    -0.00173188359370    -0.07431317959958     0.03641534773822
    4     0.40385224559662    -0.56378053882489    -0.13834102727788     0.00527188257111    -0.00000000000000
    5    -0.05385539822199    -0.04927066782048    -0.69827648757978     0.00000000000000     0.00000000000000
    6     0.01578333193349    -0.00209879162259     0.00353052143375    -0.38429734290934    -0.90449229611445
    7    -0.29541737988055    -0.12212309493631    -0.01419951015687     1.03268983964161     0.34719948374532
    8     0.09752834220406     0.01618581633322     0.00370108452944    -0.03709785916402     0.71195773765200
    9    -0.00301069681334     0.00420295365488     0.00103132493262    -0.70716573167781    -0.00000000000000
   10    -0.04268766643318     0.13930553416963    -0.68679675815782     0.00000000000000     0.00000000000000




 In Bisection function HOMO = -0.851  LUMO =  0.962

 0.05553 = (-0.85142 + 0.96248)/2.0
 sum -  nocc_ = 2.63958751
 On Iteration in Bisection 0
 a: 2.63959  b:-0.41563

 -0.39794 = (-0.85142 + 0.05553)/2.0
 sum -  nocc_ = 0.99790649
 On Iteration in Bisection 1
 a: 0.99791  b:-0.41563

 -0.62468 = (-0.85142 + -0.39794)/2.0
 sum -  nocc_ = 0.74082380
 On Iteration in Bisection 2
 a: 0.74082  b:-0.41563

 -0.73805 = (-0.85142 + -0.62468)/2.0
 sum -  nocc_ = 0.21258320
 On Iteration in Bisection 3
 a: 0.21258  b:-0.41563

 -0.79473 = (-0.85142 + -0.73805)/2.0
 sum -  nocc_ = -0.10605869
 On Iteration in Bisection 4
 a: -0.10606  b:-0.41563

 -0.76639 = (-0.79473 + -0.73805)/2.0
 sum -  nocc_ = 0.05370132
 On Iteration in Bisection 5
 a: 0.05370  b:-0.10606

 -0.78056 = (-0.79473 + -0.76639)/2.0
 sum -  nocc_ = -0.02622803
 On Iteration in Bisection 6
 a: -0.02623  b:-0.10606

 -0.77348 = (-0.78056 + -0.76639)/2.0
 sum -  nocc_ = 0.01374276
 On Iteration in Bisection 7
 a: 0.01374  b:-0.02623

 -0.77702 = (-0.78056 + -0.77348)/2.0
 sum -  nocc_ = -0.00624337
 On Iteration in Bisection 8
 a: -0.00624  b:-0.02623

 -0.77525 = (-0.77702 + -0.77348)/2.0
 sum -  nocc_ = 0.00374979
 On Iteration in Bisection 9
 a: 0.00375  b:-0.00624

 -0.77613 = (-0.77702 + -0.77525)/2.0
 sum -  nocc_ = -0.00124680
 On Iteration in Bisection 10
 a: -0.00125  b:-0.00624

 -0.77569 = (-0.77613 + -0.77525)/2.0
 sum -  nocc_ = 0.00125150
 On Iteration in Bisection 11
 a: 0.00125  b:-0.00125

 -0.77591 = (-0.77613 + -0.77569)/2.0
 sum -  nocc_ = 0.00000235
 On Iteration in Bisection 12
 a: 0.00000  b:-0.00125

 -0.77602 = (-0.77613 + -0.77591)/2.0
 sum -  nocc_ = -0.00062223
 On Iteration in Bisection 13
 a: -0.00062  b:-0.00125

 -0.77597 = (-0.77602 + -0.77591)/2.0
 sum -  nocc_ = -0.00030994
 On Iteration in Bisection 14
 a: -0.00031  b:-0.00062

 -0.77594 = (-0.77597 + -0.77591)/2.0
 sum -  nocc_ = -0.00015379
 On Iteration in Bisection 15
 a: -0.00015  b:-0.00031

 -0.77593 = (-0.77594 + -0.77591)/2.0
 sum -  nocc_ = -0.00007572
 On Iteration in Bisection 16
 a: -0.00008  b:-0.00015

 -0.77592 = (-0.77593 + -0.77591)/2.0
 sum -  nocc_ = -0.00003669
 On Iteration in Bisection 17
 a: -0.00004  b:-0.00008

 -0.77592 = (-0.77592 + -0.77591)/2.0
 sum -  nocc_ = -0.00001717
 On Iteration in Bisection 18
 a: -0.00002  b:-0.00004

 -0.77591 = (-0.77592 + -0.77591)/2.0
 sum -  nocc_ = -0.00000741
 On Iteration in Bisection 19
 a: -0.00001  b:-0.00002

 -0.77591 = (-0.77591 + -0.77591)/2.0
 sum -  nocc_ = -0.00000253
 On Iteration in Bisection 20
 a: -0.00000  b:-0.00001

 -0.77591 = (-0.77591 + -0.77591)/2.0
 sum -  nocc_ = -0.00000009
 On Iteration in Bisection 21
 a: -0.00000  b:-0.00000

 -0.77591 = (-0.77591 + -0.77591)/2.0
 sum -  nocc_ = 0.00000113
 On Iteration in Bisection 22
 a: 0.00000  b:-0.00000

 -0.77591 = (-0.77591 + -0.77591)/2.0
 sum -  nocc_ = 0.00000052
 On Iteration in Bisection 23
 a: 0.00000  b:-0.00000

 -0.77591 = (-0.77591 + -0.77591)/2.0
 sum -  nocc_ = 0.00000021
 On Iteration in Bisection 24
 a: 0.00000  b:-0.00000

 -0.77591 = (-0.77591 + -0.77591)/2.0
 sum -  nocc_ = 0.00000006
 On Iteration in Bisection 25
 a: 0.00000  b:-0.00000

 -0.77591 = (-0.77591 + -0.77591)/2.0
 sum -  nocc_ = -0.00000001
 On Iteration in Bisection 26
 a: -0.00000  b:-0.00000

 -0.77591 = (-0.77591 + -0.77591)/2.0
 sum -  nocc_ = 0.00000002
 On Iteration in Bisection 27
 a: 0.00000  b:-0.00000

 -0.77591 = (-0.77591 + -0.77591)/2.0
 sum -  nocc_ = 0.00000000
 ef = -0.77591 sum = 1.00000 

 Iter: 0  T:    20000.000  val:-0.775913  sumni 0.00000
 ne = 1.0000

Nuc Replusion =       0.293987338106
 1st iteration =      -0.236804327651
 In Bisection function HOMO = -0.272  LUMO =  1.954

 0.84116 = (-0.27184 + 1.95417)/2.0
 sum -  nocc_ = 2.14879931
 On Iteration in Bisection 0
 a: 2.14880  b:-0.49401

 0.28466 = (-0.27184 + 0.84116)/2.0
 sum -  nocc_ = 1.07631665
 On Iteration in Bisection 1
 a: 1.07632  b:-0.49401

 0.00641 = (-0.27184 + 0.28466)/2.0
 sum -  nocc_ = 0.31648381
 On Iteration in Bisection 2
 a: 0.31648  b:-0.49401

 -0.13272 = (-0.27184 + 0.00641)/2.0
 sum -  nocc_ = -0.04857650
 On Iteration in Bisection 3
 a: -0.04858  b:-0.49401

 -0.06316 = (-0.13272 + 0.00641)/2.0
 sum -  nocc_ = 0.10430338
 On Iteration in Bisection 4
 a: 0.10430  b:-0.04858

 -0.09794 = (-0.13272 + -0.06316)/2.0
 sum -  nocc_ = 0.02559840
 On Iteration in Bisection 5
 a: 0.02560  b:-0.04858

 -0.11533 = (-0.13272 + -0.09794)/2.0
 sum -  nocc_ = -0.01123993
 On Iteration in Bisection 6
 a: -0.01124  b:-0.04858

 -0.10663 = (-0.11533 + -0.09794)/2.0
 sum -  nocc_ = 0.00713810
 On Iteration in Bisection 7
 a: 0.00714  b:-0.01124

 -0.11098 = (-0.11533 + -0.10663)/2.0
 sum -  nocc_ = -0.00204823
 On Iteration in Bisection 8
 a: -0.00205  b:-0.01124

 -0.10881 = (-0.11098 + -0.10663)/2.0
 sum -  nocc_ = 0.00254399
 On Iteration in Bisection 9
 a: 0.00254  b:-0.00205

 -0.10989 = (-0.11098 + -0.10881)/2.0
 sum -  nocc_ = 0.00024785
 On Iteration in Bisection 10
 a: 0.00025  b:-0.00205

 -0.11044 = (-0.11098 + -0.10989)/2.0
 sum -  nocc_ = -0.00090017
 On Iteration in Bisection 11
 a: -0.00090  b:-0.00205

 -0.11016 = (-0.11044 + -0.10989)/2.0
 sum -  nocc_ = -0.00032616
 On Iteration in Bisection 12
 a: -0.00033  b:-0.00090

 -0.11003 = (-0.11016 + -0.10989)/2.0
 sum -  nocc_ = -0.00003916
 On Iteration in Bisection 13
 a: -0.00004  b:-0.00033

 -0.10996 = (-0.11003 + -0.10989)/2.0
 sum -  nocc_ = 0.00010434
 On Iteration in Bisection 14
 a: 0.00010  b:-0.00004

 -0.10999 = (-0.11003 + -0.10996)/2.0
 sum -  nocc_ = 0.00003259
 On Iteration in Bisection 15
 a: 0.00003  b:-0.00004

 -0.11001 = (-0.11003 + -0.10999)/2.0
 sum -  nocc_ = -0.00000328
 On Iteration in Bisection 16
 a: -0.00000  b:-0.00004

 -0.11000 = (-0.11001 + -0.10999)/2.0
 sum -  nocc_ = 0.00001465
 On Iteration in Bisection 17
 a: 0.00001  b:-0.00000

 -0.11001 = (-0.11001 + -0.11000)/2.0
 sum -  nocc_ = 0.00000569
 On Iteration in Bisection 18
 a: 0.00001  b:-0.00000

 -0.11001 = (-0.11001 + -0.11001)/2.0
 sum -  nocc_ = 0.00000120
 On Iteration in Bisection 19
 a: 0.00000  b:-0.00000

 -0.11001 = (-0.11001 + -0.11001)/2.0
 sum -  nocc_ = -0.00000104
 On Iteration in Bisection 20
 a: -0.00000  b:-0.00000

 -0.11001 = (-0.11001 + -0.11001)/2.0
 sum -  nocc_ = 0.00000008
 On Iteration in Bisection 21
 a: 0.00000  b:-0.00000

 -0.11001 = (-0.11001 + -0.11001)/2.0
 sum -  nocc_ = -0.00000048
 On Iteration in Bisection 22
 a: -0.00000  b:-0.00000

 -0.11001 = (-0.11001 + -0.11001)/2.0
 sum -  nocc_ = -0.00000020
 On Iteration in Bisection 23
 a: -0.00000  b:-0.00000

 -0.11001 = (-0.11001 + -0.11001)/2.0
 sum -  nocc_ = -0.00000006
 On Iteration in Bisection 24
 a: -0.00000  b:-0.00000

 -0.11001 = (-0.11001 + -0.11001)/2.0
 sum -  nocc_ = 0.00000001
 ef = -0.11001 sum = 1.00000 

 Iter: 0  T:    20000.000  val:-0.110010  sumni 0.00000
 ne = 1.0000

 iter:1  failiter:1  energy:     -1.035489092845  total:     -0.741501754740  error:     -0.084549735612
 In Bisection function HOMO = -0.317  LUMO =  1.944

 0.81316 = (-0.31718 + 1.94350)/2.0
 sum -  nocc_ = 2.35978095
 On Iteration in Bisection 0
 a: 2.35978  b:-0.47230

 0.24799 = (-0.31718 + 0.81316)/2.0
 sum -  nocc_ = 1.02008222
 On Iteration in Bisection 1
 a: 1.02008  b:-0.47230

 -0.03459 = (-0.31718 + 0.24799)/2.0
 sum -  nocc_ = 0.70056335
 On Iteration in Bisection 2
 a: 0.70056  b:-0.47230

 -0.17588 = (-0.31718 + -0.03459)/2.0
 sum -  nocc_ = 0.11261427
 On Iteration in Bisection 3
 a: 0.11261  b:-0.47230

 -0.24653 = (-0.31718 + -0.17588)/2.0
 sum -  nocc_ = -0.16688061
 On Iteration in Bisection 4
 a: -0.16688  b:-0.47230

 -0.21121 = (-0.24653 + -0.17588)/2.0
 sum -  nocc_ = -0.02617940
 On Iteration in Bisection 5
 a: -0.02618  b:-0.16688

 -0.19355 = (-0.21121 + -0.17588)/2.0
 sum -  nocc_ = 0.04280324
 On Iteration in Bisection 6
 a: 0.04280  b:-0.02618

 -0.20238 = (-0.21121 + -0.19355)/2.0
 sum -  nocc_ = 0.00829105
 On Iteration in Bisection 7
 a: 0.00829  b:-0.02618

 -0.20679 = (-0.21121 + -0.20238)/2.0
 sum -  nocc_ = -0.00893860
 On Iteration in Bisection 8
 a: -0.00894  b:-0.02618

 -0.20458 = (-0.20679 + -0.20238)/2.0
 sum -  nocc_ = -0.00032374
 On Iteration in Bisection 9
 a: -0.00032  b:-0.00894

 -0.20348 = (-0.20458 + -0.20238)/2.0
 sum -  nocc_ = 0.00398350
 On Iteration in Bisection 10
 a: 0.00398  b:-0.00032

 -0.20403 = (-0.20458 + -0.20348)/2.0
 sum -  nocc_ = 0.00182986
 On Iteration in Bisection 11
 a: 0.00183  b:-0.00032

 -0.20431 = (-0.20458 + -0.20403)/2.0
 sum -  nocc_ = 0.00075306
 On Iteration in Bisection 12
 a: 0.00075  b:-0.00032

 -0.20445 = (-0.20458 + -0.20431)/2.0
 sum -  nocc_ = 0.00021466
 On Iteration in Bisection 13
 a: 0.00021  b:-0.00032

 -0.20452 = (-0.20458 + -0.20445)/2.0
 sum -  nocc_ = -0.00005454
 On Iteration in Bisection 14
 a: -0.00005  b:-0.00032

 -0.20448 = (-0.20452 + -0.20445)/2.0
 sum -  nocc_ = 0.00008006
 On Iteration in Bisection 15
 a: 0.00008  b:-0.00005

 -0.20450 = (-0.20452 + -0.20448)/2.0
 sum -  nocc_ = 0.00001276
 On Iteration in Bisection 16
 a: 0.00001  b:-0.00005

 -0.20451 = (-0.20452 + -0.20450)/2.0
 sum -  nocc_ = -0.00002089
 On Iteration in Bisection 17
 a: -0.00002  b:-0.00005

 -0.20450 = (-0.20451 + -0.20450)/2.0
 sum -  nocc_ = -0.00000406
 On Iteration in Bisection 18
 a: -0.00000  b:-0.00002

 -0.20450 = (-0.20450 + -0.20450)/2.0
 sum -  nocc_ = 0.00000435
 On Iteration in Bisection 19
 a: 0.00000  b:-0.00000

 -0.20450 = (-0.20450 + -0.20450)/2.0
 sum -  nocc_ = 0.00000014
 On Iteration in Bisection 20
 a: 0.00000  b:-0.00000

 -0.20450 = (-0.20450 + -0.20450)/2.0
 sum -  nocc_ = -0.00000196
 On Iteration in Bisection 21
 a: -0.00000  b:-0.00000

 -0.20450 = (-0.20450 + -0.20450)/2.0
 sum -  nocc_ = -0.00000091
 On Iteration in Bisection 22
 a: -0.00000  b:-0.00000

 -0.20450 = (-0.20450 + -0.20450)/2.0
 sum -  nocc_ = -0.00000038
 On Iteration in Bisection 23
 a: -0.00000  b:-0.00000

 -0.20450 = (-0.20450 + -0.20450)/2.0
 sum -  nocc_ = -0.00000012
 On Iteration in Bisection 24
 a: -0.00000  b:-0.00000

 -0.20450 = (-0.20450 + -0.20450)/2.0
 sum -  nocc_ = 0.00000001
 On Iteration in Bisection 25
 a: 0.00000  b:-0.00000

 -0.20450 = (-0.20450 + -0.20450)/2.0
 sum -  nocc_ = -0.00000005
 On Iteration in Bisection 26
 a: -0.00000  b:-0.00000

 -0.20450 = (-0.20450 + -0.20450)/2.0
 sum -  nocc_ = -0.00000002
 On Iteration in Bisection 27
 a: -0.00000  b:-0.00000

 -0.20450 = (-0.20450 + -0.20450)/2.0
 sum -  nocc_ = -0.00000000
 ef = -0.20450 sum = 1.00000 

 Iter: 1  T:    20000.000  val:-0.204501  sumni 0.00000
 ne = 1.0000

 iter:2  failiter:2  energy:     -1.099008737997  total:     -0.805021399892  error:     -0.063519645152
 In Bisection function HOMO = -0.366  LUMO =  1.851

 0.74248 = (-0.36630 + 1.85126)/2.0
 sum -  nocc_ = 2.51174043
 On Iteration in Bisection 0
 a: 2.51174  b:-0.49335

 0.18809 = (-0.36630 + 0.74248)/2.0
 sum -  nocc_ = 0.97825146
 On Iteration in Bisection 1
 a: 0.97825  b:-0.49335

 -0.08911 = (-0.36630 + 0.18809)/2.0
 sum -  nocc_ = 0.33516338
 On Iteration in Bisection 2
 a: 0.33516  b:-0.49335

 -0.22770 = (-0.36630 + -0.08911)/2.0
 sum -  nocc_ = -0.04444626
 On Iteration in Bisection 3
 a: -0.04445  b:-0.49335

 -0.15840 = (-0.22770 + -0.08911)/2.0
 sum -  nocc_ = 0.11518878
 On Iteration in Bisection 4
 a: 0.11519  b:-0.04445

 -0.19305 = (-0.22770 + -0.15840)/2.0
 sum -  nocc_ = 0.03263717
 On Iteration in Bisection 5
 a: 0.03264  b:-0.04445

 -0.21038 = (-0.22770 + -0.19305)/2.0
 sum -  nocc_ = -0.00577979
 On Iteration in Bisection 6
 a: -0.00578  b:-0.04445

 -0.20172 = (-0.21038 + -0.19305)/2.0
 sum -  nocc_ = 0.01335641
 On Iteration in Bisection 7
 a: 0.01336  b:-0.00578

 -0.20605 = (-0.21038 + -0.20172)/2.0
 sum -  nocc_ = 0.00378317
 On Iteration in Bisection 8
 a: 0.00378  b:-0.00578

 -0.20821 = (-0.21038 + -0.20605)/2.0
 sum -  nocc_ = -0.00099797
 On Iteration in Bisection 9
 a: -0.00100  b:-0.00578

 -0.20713 = (-0.20821 + -0.20605)/2.0
 sum -  nocc_ = 0.00139249
 On Iteration in Bisection 10
 a: 0.00139  b:-0.00100

 -0.20767 = (-0.20821 + -0.20713)/2.0
 sum -  nocc_ = 0.00019725
 On Iteration in Bisection 11
 a: 0.00020  b:-0.00100

 -0.20794 = (-0.20821 + -0.20767)/2.0
 sum -  nocc_ = -0.00040035
 On Iteration in Bisection 12
 a: -0.00040  b:-0.00100

 -0.20781 = (-0.20794 + -0.20767)/2.0
 sum -  nocc_ = -0.00010155
 On Iteration in Bisection 13
 a: -0.00010  b:-0.00040

 -0.20774 = (-0.20781 + -0.20767)/2.0
 sum -  nocc_ = 0.00004785
 On Iteration in Bisection 14
 a: 0.00005  b:-0.00010

 -0.20777 = (-0.20781 + -0.20774)/2.0
 sum -  nocc_ = -0.00002685
 On Iteration in Bisection 15
 a: -0.00003  b:-0.00010

 -0.20776 = (-0.20777 + -0.20774)/2.0
 sum -  nocc_ = 0.00001050
 On Iteration in Bisection 16
 a: 0.00001  b:-0.00003

 -0.20776 = (-0.20777 + -0.20776)/2.0
 sum -  nocc_ = -0.00000817
 On Iteration in Bisection 17
 a: -0.00001  b:-0.00003

 -0.20776 = (-0.20776 + -0.20776)/2.0
 sum -  nocc_ = 0.00000116
 On Iteration in Bisection 18
 a: 0.00000  b:-0.00001

 -0.20776 = (-0.20776 + -0.20776)/2.0
 sum -  nocc_ = -0.00000350
 On Iteration in Bisection 19
 a: -0.00000  b:-0.00001

 -0.20776 = (-0.20776 + -0.20776)/2.0
 sum -  nocc_ = -0.00000117
 On Iteration in Bisection 20
 a: -0.00000  b:-0.00000

 -0.20776 = (-0.20776 + -0.20776)/2.0
 sum -  nocc_ = -0.00000000
 ef = -0.20776 sum = 1.00000 

 Iter: 2  T:    20000.000  val:-0.207761  sumni 0.00000
 ne = 1.0000

 iter:3  failiter:3  energy:     -1.169504175287  total:     -0.875516837182  error:     -0.070495437290
 In Bisection function HOMO = -0.387  LUMO =  1.845

 0.72882 = (-0.38749 + 1.84512)/2.0
 sum -  nocc_ = 2.47631500
 On Iteration in Bisection 0
 a: 2.47631  b:-0.49647

 0.17066 = (-0.38749 + 0.72882)/2.0
 sum -  nocc_ = 0.96038659
 On Iteration in Bisection 1
 a: 0.96039  b:-0.49647

 -0.10841 = (-0.38749 + 0.17066)/2.0
 sum -  nocc_ = 0.21287444
 On Iteration in Bisection 2
 a: 0.21287  b:-0.49647

 -0.24795 = (-0.38749 + -0.10841)/2.0
 sum -  nocc_ = -0.06840361
 On Iteration in Bisection 3
 a: -0.06840  b:-0.49647

 -0.17818 = (-0.24795 + -0.10841)/2.0
 sum -  nocc_ = 0.05255313
 On Iteration in Bisection 4
 a: 0.05255  b:-0.06840

 -0.21307 = (-0.24795 + -0.17818)/2.0
 sum -  nocc_ = -0.00718959
 On Iteration in Bisection 5
 a: -0.00719  b:-0.06840

 -0.19563 = (-0.21307 + -0.17818)/2.0
 sum -  nocc_ = 0.02211547
 On Iteration in Bisection 6
 a: 0.02212  b:-0.00719

 -0.20435 = (-0.21307 + -0.19563)/2.0
 sum -  nocc_ = 0.00741505
 On Iteration in Bisection 7
 a: 0.00742  b:-0.00719

 -0.20871 = (-0.21307 + -0.20435)/2.0
 sum -  nocc_ = 0.00011255
 On Iteration in Bisection 8
 a: 0.00011  b:-0.00719

 -0.21089 = (-0.21307 + -0.20871)/2.0
 sum -  nocc_ = -0.00353709
 On Iteration in Bisection 9
 a: -0.00354  b:-0.00719

 -0.20980 = (-0.21089 + -0.20871)/2.0
 sum -  nocc_ = -0.00171210
 On Iteration in Bisection 10
 a: -0.00171  b:-0.00354

 -0.20925 = (-0.20980 + -0.20871)/2.0
 sum -  nocc_ = -0.00079976
 On Iteration in Bisection 11
 a: -0.00080  b:-0.00171

 -0.20898 = (-0.20925 + -0.20871)/2.0
 sum -  nocc_ = -0.00034360
 On Iteration in Bisection 12
 a: -0.00034  b:-0.00080

 -0.20884 = (-0.20898 + -0.20871)/2.0
 sum -  nocc_ = -0.00011553
 On Iteration in Bisection 13
 a: -0.00012  b:-0.00034

 -0.20878 = (-0.20884 + -0.20871)/2.0
 sum -  nocc_ = -0.00000149
 On Iteration in Bisection 14
 a: -0.00000  b:-0.00012

 -0.20874 = (-0.20878 + -0.20871)/2.0
 sum -  nocc_ = 0.00005553
 On Iteration in Bisection 15
 a: 0.00006  b:-0.00000

 -0.20876 = (-0.20878 + -0.20874)/2.0
 sum -  nocc_ = 0.00002702
 On Iteration in Bisection 16
 a: 0.00003  b:-0.00000

 -0.20877 = (-0.20878 + -0.20876)/2.0
 sum -  nocc_ = 0.00001276
 On Iteration in Bisection 17
 a: 0.00001  b:-0.00000

 -0.20877 = (-0.20878 + -0.20877)/2.0
 sum -  nocc_ = 0.00000564
 On Iteration in Bisection 18
 a: 0.00001  b:-0.00000

 -0.20877 = (-0.20878 + -0.20877)/2.0
 sum -  nocc_ = 0.00000207
 On Iteration in Bisection 19
 a: 0.00000  b:-0.00000

 -0.20877 = (-0.20878 + -0.20877)/2.0
 sum -  nocc_ = 0.00000029
 On Iteration in Bisection 20
 a: 0.00000  b:-0.00000

 -0.20877 = (-0.20878 + -0.20877)/2.0
 sum -  nocc_ = -0.00000060
 On Iteration in Bisection 21
 a: -0.00000  b:-0.00000

 -0.20877 = (-0.20877 + -0.20877)/2.0
 sum -  nocc_ = -0.00000015
 On Iteration in Bisection 22
 a: -0.00000  b:-0.00000

 -0.20877 = (-0.20877 + -0.20877)/2.0
 sum -  nocc_ = 0.00000007
 On Iteration in Bisection 23
 a: 0.00000  b:-0.00000

 -0.20877 = (-0.20877 + -0.20877)/2.0
 sum -  nocc_ = -0.00000004
 On Iteration in Bisection 24
 a: -0.00000  b:-0.00000

 -0.20877 = (-0.20877 + -0.20877)/2.0
 sum -  nocc_ = 0.00000001
 On Iteration in Bisection 25
 a: 0.00000  b:-0.00000

 -0.20877 = (-0.20877 + -0.20877)/2.0
 sum -  nocc_ = -0.00000002
 On Iteration in Bisection 26
 a: -0.00000  b:-0.00000

 -0.20877 = (-0.20877 + -0.20877)/2.0
 sum -  nocc_ = -0.00000000
 ef = -0.20877 sum = 1.00000 

 Iter: 3  T:    20000.000  val:-0.208775  sumni 0.00000
 ne = 1.0000

 iter:4  failiter:4  energy:     -1.198024656489  total:     -0.904037318384  error:     -0.028520481202
 In Bisection function HOMO = -0.392  LUMO =  1.846

 0.72696 = (-0.39211 + 1.84602)/2.0
 sum -  nocc_ = 2.46344096
 On Iteration in Bisection 0
 a: 2.46344  b:-0.49699

 0.16743 = (-0.39211 + 0.72696)/2.0
 sum -  nocc_ = 0.95462012
 On Iteration in Bisection 1
 a: 0.95462  b:-0.49699

 -0.11234 = (-0.39211 + 0.16743)/2.0
 sum -  nocc_ = 0.18807479
 On Iteration in Bisection 2
 a: 0.18807  b:-0.49699

 -0.25222 = (-0.39211 + -0.11234)/2.0
 sum -  nocc_ = -0.07224579
 On Iteration in Bisection 3
 a: -0.07225  b:-0.49699

 -0.18228 = (-0.25222 + -0.11234)/2.0
 sum -  nocc_ = 0.04138786
 On Iteration in Bisection 4
 a: 0.04139  b:-0.07225

 -0.21725 = (-0.25222 + -0.18228)/2.0
 sum -  nocc_ = -0.01394847
 On Iteration in Bisection 5
 a: -0.01395  b:-0.07225

 -0.19977 = (-0.21725 + -0.18228)/2.0
 sum -  nocc_ = 0.01336288
 On Iteration in Bisection 6
 a: 0.01336  b:-0.01395

 -0.20851 = (-0.21725 + -0.19977)/2.0
 sum -  nocc_ = -0.00029085
 On Iteration in Bisection 7
 a: -0.00029  b:-0.01395

 -0.20414 = (-0.20851 + -0.19977)/2.0
 sum -  nocc_ = 0.00652508
 On Iteration in Bisection 8
 a: 0.00653  b:-0.00029

 -0.20632 = (-0.20851 + -0.20414)/2.0
 sum -  nocc_ = 0.00311581
 On Iteration in Bisection 9
 a: 0.00312  b:-0.00029

 -0.20742 = (-0.20851 + -0.20632)/2.0
 sum -  nocc_ = 0.00141233
 On Iteration in Bisection 10
 a: 0.00141  b:-0.00029

 -0.20796 = (-0.20851 + -0.20742)/2.0
 sum -  nocc_ = 0.00056073
 On Iteration in Bisection 11
 a: 0.00056  b:-0.00029

 -0.20824 = (-0.20851 + -0.20796)/2.0
 sum -  nocc_ = 0.00013494
 On Iteration in Bisection 12
 a: 0.00013  b:-0.00029

 -0.20837 = (-0.20851 + -0.20824)/2.0
 sum -  nocc_ = -0.00007796
 On Iteration in Bisection 13
 a: -0.00008  b:-0.00029

 -0.20830 = (-0.20837 + -0.20824)/2.0
 sum -  nocc_ = 0.00002849
 On Iteration in Bisection 14
 a: 0.00003  b:-0.00008

 -0.20834 = (-0.20837 + -0.20830)/2.0
 sum -  nocc_ = -0.00002473
 On Iteration in Bisection 15
 a: -0.00002  b:-0.00008

 -0.20832 = (-0.20834 + -0.20830)/2.0
 sum -  nocc_ = 0.00000188
 On Iteration in Bisection 16
 a: 0.00000  b:-0.00002

 -0.20833 = (-0.20834 + -0.20832)/2.0
 sum -  nocc_ = -0.00001143
 On Iteration in Bisection 17
 a: -0.00001  b:-0.00002

 -0.20833 = (-0.20833 + -0.20832)/2.0
 sum -  nocc_ = -0.00000477
 On Iteration in Bisection 18
 a: -0.00000  b:-0.00001

 -0.20832 = (-0.20833 + -0.20832)/2.0
 sum -  nocc_ = -0.00000145
 On Iteration in Bisection 19
 a: -0.00000  b:-0.00000

 -0.20832 = (-0.20832 + -0.20832)/2.0
 sum -  nocc_ = 0.00000022
 On Iteration in Bisection 20
 a: 0.00000  b:-0.00000

 -0.20832 = (-0.20832 + -0.20832)/2.0
 sum -  nocc_ = -0.00000062
 On Iteration in Bisection 21
 a: -0.00000  b:-0.00000

 -0.20832 = (-0.20832 + -0.20832)/2.0
 sum -  nocc_ = -0.00000020
 On Iteration in Bisection 22
 a: -0.00000  b:-0.00000

 -0.20832 = (-0.20832 + -0.20832)/2.0
 sum -  nocc_ = 0.00000001
 ef = -0.20832 sum = 1.00000 

 Iter: 4  T:    20000.000  val:-0.208322  sumni 0.00000
 ne = 1.0000

 iter:5  failiter:5  energy:     -1.204323389043  total:     -0.910336050937  error:     -0.006298732553
 In Bisection function HOMO = -0.393  LUMO =  1.846

 0.72670 = (-0.39299 + 1.84639)/2.0
 sum -  nocc_ = 2.46065365
 On Iteration in Bisection 0
 a: 2.46065  b:-0.49709

 0.16686 = (-0.39299 + 0.72670)/2.0
 sum -  nocc_ = 0.95337487
 On Iteration in Bisection 1
 a: 0.95337  b:-0.49709

 -0.11307 = (-0.39299 + 0.16686)/2.0
 sum -  nocc_ = 0.18330847
 On Iteration in Bisection 2
 a: 0.18331  b:-0.49709

 -0.25303 = (-0.39299 + -0.11307)/2.0
 sum -  nocc_ = -0.07294270
 On Iteration in Bisection 3
 a: -0.07294  b:-0.49709

 -0.18305 = (-0.25303 + -0.11307)/2.0
 sum -  nocc_ = 0.03929812
 On Iteration in Bisection 4
 a: 0.03930  b:-0.07294

 -0.21804 = (-0.25303 + -0.18305)/2.0
 sum -  nocc_ = -0.01519779
 On Iteration in Bisection 5
 a: -0.01520  b:-0.07294

 -0.20054 = (-0.21804 + -0.18305)/2.0
 sum -  nocc_ = 0.01173431
 On Iteration in Bisection 6
 a: 0.01173  b:-0.01520

 -0.20929 = (-0.21804 + -0.20054)/2.0
 sum -  nocc_ = -0.00172013
 On Iteration in Bisection 7
 a: -0.00172  b:-0.01520

 -0.20491 = (-0.20929 + -0.20054)/2.0
 sum -  nocc_ = 0.00499865
 On Iteration in Bisection 8
 a: 0.00500  b:-0.00172

 -0.20710 = (-0.20929 + -0.20491)/2.0
 sum -  nocc_ = 0.00163856
 On Iteration in Bisection 9
 a: 0.00164  b:-0.00172

 -0.20820 = (-0.20929 + -0.20710)/2.0
 sum -  nocc_ = -0.00004078
 On Iteration in Bisection 10
 a: -0.00004  b:-0.00172

 -0.20765 = (-0.20820 + -0.20710)/2.0
 sum -  nocc_ = 0.00079887
 On Iteration in Bisection 11
 a: 0.00080  b:-0.00004

 -0.20792 = (-0.20820 + -0.20765)/2.0
 sum -  nocc_ = 0.00037904
 On Iteration in Bisection 12
 a: 0.00038  b:-0.00004

 -0.20806 = (-0.20820 + -0.20792)/2.0
 sum -  nocc_ = 0.00016913
 On Iteration in Bisection 13
 a: 0.00017  b:-0.00004

 -0.20813 = (-0.20820 + -0.20806)/2.0
 sum -  nocc_ = 0.00006417
 On Iteration in Bisection 14
 a: 0.00006  b:-0.00004

 -0.20816 = (-0.20820 + -0.20813)/2.0
 sum -  nocc_ = 0.00001170
 On Iteration in Bisection 15
 a: 0.00001  b:-0.00004

 -0.20818 = (-0.20820 + -0.20816)/2.0
 sum -  nocc_ = -0.00001454
 On Iteration in Bisection 16
 a: -0.00001  b:-0.00004

 -0.20817 = (-0.20818 + -0.20816)/2.0
 sum -  nocc_ = -0.00000142
 On Iteration in Bisection 17
 a: -0.00000  b:-0.00001

 -0.20817 = (-0.20817 + -0.20816)/2.0
 sum -  nocc_ = 0.00000514
 On Iteration in Bisection 18
 a: 0.00001  b:-0.00000

 -0.20817 = (-0.20817 + -0.20817)/2.0
 sum -  nocc_ = 0.00000186
 On Iteration in Bisection 19
 a: 0.00000  b:-0.00000

 -0.20817 = (-0.20817 + -0.20817)/2.0
 sum -  nocc_ = 0.00000022
 On Iteration in Bisection 20
 a: 0.00000  b:-0.00000

 -0.20817 = (-0.20817 + -0.20817)/2.0
 sum -  nocc_ = -0.00000060
 On Iteration in Bisection 21
 a: -0.00000  b:-0.00000

 -0.20817 = (-0.20817 + -0.20817)/2.0
 sum -  nocc_ = -0.00000019
 On Iteration in Bisection 22
 a: -0.00000  b:-0.00000

 -0.20817 = (-0.20817 + -0.20817)/2.0
 sum -  nocc_ = 0.00000001
 On Iteration in Bisection 23
 a: 0.00000  b:-0.00000

 -0.20817 = (-0.20817 + -0.20817)/2.0
 sum -  nocc_ = -0.00000009
 On Iteration in Bisection 24
 a: -0.00000  b:-0.00000

 -0.20817 = (-0.20817 + -0.20817)/2.0
 sum -  nocc_ = -0.00000004
 On Iteration in Bisection 25
 a: -0.00000  b:-0.00000

 -0.20817 = (-0.20817 + -0.20817)/2.0
 sum -  nocc_ = -0.00000001
 On Iteration in Bisection 26
 a: -0.00000  b:-0.00000

 -0.20817 = (-0.20817 + -0.20817)/2.0
 sum -  nocc_ = -0.00000000
 ef = -0.20817 sum = 1.00000 

 Iter: 5  T:    20000.000  val:-0.208169  sumni 0.00000
 ne = 1.0000

 iter:6  failiter:6  energy:     -1.205547845848  total:     -0.911560507743  error:     -0.001224456806
 In Bisection function HOMO = -0.393  LUMO =  1.846

 0.72666 = (-0.39315 + 1.84648)/2.0
 sum -  nocc_ = 2.46012779
 On Iteration in Bisection 0
 a: 2.46013  b:-0.49711

 0.16676 = (-0.39315 + 0.72666)/2.0
 sum -  nocc_ = 0.95312911
 On Iteration in Bisection 1
 a: 0.95313  b:-0.49711

 -0.11320 = (-0.39315 + 0.16676)/2.0
 sum -  nocc_ = 0.18238814
 On Iteration in Bisection 2
 a: 0.18239  b:-0.49711

 -0.25317 = (-0.39315 + -0.11320)/2.0
 sum -  nocc_ = -0.07307534
 On Iteration in Bisection 3
 a: -0.07308  b:-0.49711

 -0.18319 = (-0.25317 + -0.11320)/2.0
 sum -  nocc_ = 0.03889673
 On Iteration in Bisection 4
 a: 0.03890  b:-0.07308

 -0.21818 = (-0.25317 + -0.18319)/2.0
 sum -  nocc_ = -0.01543698
 On Iteration in Bisection 5
 a: -0.01544  b:-0.07308

 -0.20068 = (-0.21818 + -0.18319)/2.0
 sum -  nocc_ = 0.01142195
 On Iteration in Bisection 6
 a: 0.01142  b:-0.01544

 -0.20943 = (-0.21818 + -0.20068)/2.0
 sum -  nocc_ = -0.00199404
 On Iteration in Bisection 7
 a: -0.00199  b:-0.01544

 -0.20506 = (-0.20943 + -0.20068)/2.0
 sum -  nocc_ = 0.00470600
 On Iteration in Bisection 8
 a: 0.00471  b:-0.00199

 -0.20724 = (-0.20943 + -0.20506)/2.0
 sum -  nocc_ = 0.00135541
 On Iteration in Bisection 9
 a: 0.00136  b:-0.00199

 -0.20834 = (-0.20943 + -0.20724)/2.0
 sum -  nocc_ = -0.00031928
 On Iteration in Bisection 10
 a: -0.00032  b:-0.00199

 -0.20779 = (-0.20834 + -0.20724)/2.0
 sum -  nocc_ = 0.00051805
 On Iteration in Bisection 11
 a: 0.00052  b:-0.00032

 -0.20806 = (-0.20834 + -0.20779)/2.0
 sum -  nocc_ = 0.00009938
 On Iteration in Bisection 12
 a: 0.00010  b:-0.00032

 -0.20820 = (-0.20834 + -0.20806)/2.0
 sum -  nocc_ = -0.00010995
 On Iteration in Bisection 13
 a: -0.00011  b:-0.00032

 -0.20813 = (-0.20820 + -0.20806)/2.0
 sum -  nocc_ = -0.00000528
 On Iteration in Bisection 14
 a: -0.00001  b:-0.00011

 -0.20810 = (-0.20813 + -0.20806)/2.0
 sum -  nocc_ = 0.00004705
 On Iteration in Bisection 15
 a: 0.00005  b:-0.00001

 -0.20812 = (-0.20813 + -0.20810)/2.0
 sum -  nocc_ = 0.00002088
 On Iteration in Bisection 16
 a: 0.00002  b:-0.00001

 -0.20812 = (-0.20813 + -0.20812)/2.0
 sum -  nocc_ = 0.00000780
 On Iteration in Bisection 17
 a: 0.00001  b:-0.00001

 -0.20813 = (-0.20813 + -0.20812)/2.0
 sum -  nocc_ = 0.00000126
 On Iteration in Bisection 18
 a: 0.00000  b:-0.00001

 -0.20813 = (-0.20813 + -0.20813)/2.0
 sum -  nocc_ = -0.00000201
 On Iteration in Bisection 19
 a: -0.00000  b:-0.00001

 -0.20813 = (-0.20813 + -0.20813)/2.0
 sum -  nocc_ = -0.00000038
 On Iteration in Bisection 20
 a: -0.00000  b:-0.00000

 -0.20813 = (-0.20813 + -0.20813)/2.0
 sum -  nocc_ = 0.00000044
 On Iteration in Bisection 21
 a: 0.00000  b:-0.00000

 -0.20813 = (-0.20813 + -0.20813)/2.0
 sum -  nocc_ = 0.00000003
 On Iteration in Bisection 22
 a: 0.00000  b:-0.00000

 -0.20813 = (-0.20813 + -0.20813)/2.0
 sum -  nocc_ = -0.00000017
 On Iteration in Bisection 23
 a: -0.00000  b:-0.00000

 -0.20813 = (-0.20813 + -0.20813)/2.0
 sum -  nocc_ = -0.00000007
 On Iteration in Bisection 24
 a: -0.00000  b:-0.00000

 -0.20813 = (-0.20813 + -0.20813)/2.0
 sum -  nocc_ = -0.00000002
 On Iteration in Bisection 25
 a: -0.00000  b:-0.00000

 -0.20813 = (-0.20813 + -0.20813)/2.0
 sum -  nocc_ = 0.00000001
 ef = -0.20813 sum = 1.00000 

 Iter: 6  T:    20000.000  val:-0.208129  sumni 0.00000
 ne = 1.0000

 iter:7  failiter:7  energy:     -1.205779444949  total:     -0.911792106843  error:     -0.000231599100
 In Bisection function HOMO = -0.393  LUMO =  1.846

 0.72666 = (-0.39318 + 1.84650)/2.0
 sum -  nocc_ = 2.46002924
 On Iteration in Bisection 0
 a: 2.46003  b:-0.49711

 0.16674 = (-0.39318 + 0.72666)/2.0
 sum -  nocc_ = 0.95308136
 On Iteration in Bisection 1
 a: 0.95308  b:-0.49711

 -0.11322 = (-0.39318 + 0.16674)/2.0
 sum -  nocc_ = 0.18220977
 On Iteration in Bisection 2
 a: 0.18221  b:-0.49711

 -0.25320 = (-0.39318 + -0.11322)/2.0
 sum -  nocc_ = -0.07310091
 On Iteration in Bisection 3
 a: -0.07310  b:-0.49711

 -0.18321 = (-0.25320 + -0.11322)/2.0
 sum -  nocc_ = 0.03881902
 On Iteration in Bisection 4
 a: 0.03882  b:-0.07310

 -0.21821 = (-0.25320 + -0.18321)/2.0
 sum -  nocc_ = -0.01548323
 On Iteration in Bisection 5
 a: -0.01548  b:-0.07310

 -0.20071 = (-0.21821 + -0.18321)/2.0
 sum -  nocc_ = 0.01136151
 On Iteration in Bisection 6
 a: 0.01136  b:-0.01548

 -0.20946 = (-0.21821 + -0.20071)/2.0
 sum -  nocc_ = -0.00204702
 On Iteration in Bisection 7
 a: -0.00205  b:-0.01548

 -0.20508 = (-0.20946 + -0.20071)/2.0
 sum -  nocc_ = 0.00464938
 On Iteration in Bisection 8
 a: 0.00465  b:-0.00205

 -0.20727 = (-0.20946 + -0.20508)/2.0
 sum -  nocc_ = 0.00130063
 On Iteration in Bisection 9
 a: 0.00130  b:-0.00205

 -0.20836 = (-0.20946 + -0.20727)/2.0
 sum -  nocc_ = -0.00037316
 On Iteration in Bisection 10
 a: -0.00037  b:-0.00205

 -0.20782 = (-0.20836 + -0.20727)/2.0
 sum -  nocc_ = 0.00046373
 On Iteration in Bisection 11
 a: 0.00046  b:-0.00037

 -0.20809 = (-0.20836 + -0.20782)/2.0
 sum -  nocc_ = 0.00004528
 On Iteration in Bisection 12
 a: 0.00005  b:-0.00037

 -0.20823 = (-0.20836 + -0.20809)/2.0
 sum -  nocc_ = -0.00016394
 On Iteration in Bisection 13
 a: -0.00016  b:-0.00037

 -0.20816 = (-0.20823 + -0.20809)/2.0
 sum -  nocc_ = -0.00005933
 On Iteration in Bisection 14
 a: -0.00006  b:-0.00016

 -0.20812 = (-0.20816 + -0.20809)/2.0
 sum -  nocc_ = -0.00000702
 On Iteration in Bisection 15
 a: -0.00001  b:-0.00006

 -0.20811 = (-0.20812 + -0.20809)/2.0
 sum -  nocc_ = 0.00001913
 On Iteration in Bisection 16
 a: 0.00002  b:-0.00001

 -0.20812 = (-0.20812 + -0.20811)/2.0
 sum -  nocc_ = 0.00000606
 On Iteration in Bisection 17
 a: 0.00001  b:-0.00001

 -0.20812 = (-0.20812 + -0.20812)/2.0
 sum -  nocc_ = -0.00000048
 On Iteration in Bisection 18
 a: -0.00000  b:-0.00001

 -0.20812 = (-0.20812 + -0.20812)/2.0
 sum -  nocc_ = 0.00000279
 On Iteration in Bisection 19
 a: 0.00000  b:-0.00000

 -0.20812 = (-0.20812 + -0.20812)/2.0
 sum -  nocc_ = 0.00000115
 On Iteration in Bisection 20
 a: 0.00000  b:-0.00000

 -0.20812 = (-0.20812 + -0.20812)/2.0
 sum -  nocc_ = 0.00000034
 On Iteration in Bisection 21
 a: 0.00000  b:-0.00000

 -0.20812 = (-0.20812 + -0.20812)/2.0
 sum -  nocc_ = -0.00000007
 On Iteration in Bisection 22
 a: -0.00000  b:-0.00000

 -0.20812 = (-0.20812 + -0.20812)/2.0
 sum -  nocc_ = 0.00000013
 On Iteration in Bisection 23
 a: 0.00000  b:-0.00000

 -0.20812 = (-0.20812 + -0.20812)/2.0
 sum -  nocc_ = 0.00000003
 On Iteration in Bisection 24
 a: 0.00000  b:-0.00000

 -0.20812 = (-0.20812 + -0.20812)/2.0
 sum -  nocc_ = -0.00000002
 On Iteration in Bisection 25
 a: -0.00000  b:-0.00000

 -0.20812 = (-0.20812 + -0.20812)/2.0
 sum -  nocc_ = 0.00000000
 ef = -0.20812 sum = 1.00000 

 Iter: 7  T:    20000.000  val:-0.208120  sumni 0.00000
 ne = 1.0000

 iter:8  failiter:8  energy:     -1.205823349943  total:     -0.911836011837  error:     -0.000043904994
 In Bisection function HOMO = -0.393  LUMO =  1.847

 0.72666 = (-0.39319 + 1.84650)/2.0
 sum -  nocc_ = 2.46001073
 On Iteration in Bisection 0
 a: 2.46001  b:-0.49711

 0.16674 = (-0.39319 + 0.72666)/2.0
 sum -  nocc_ = 0.95307209
 On Iteration in Bisection 1
 a: 0.95307  b:-0.49711

 -0.11323 = (-0.39319 + 0.16674)/2.0
 sum -  nocc_ = 0.18217509
 On Iteration in Bisection 2
 a: 0.18218  b:-0.49711

 -0.25321 = (-0.39319 + -0.11323)/2.0
 sum -  nocc_ = -0.07310586
 On Iteration in Bisection 3
 a: -0.07311  b:-0.49711

 -0.18322 = (-0.25321 + -0.11323)/2.0
 sum -  nocc_ = 0.03880391
 On Iteration in Bisection 4
 a: 0.03880  b:-0.07311

 -0.21821 = (-0.25321 + -0.18322)/2.0
 sum -  nocc_ = -0.01549221
 On Iteration in Bisection 5
 a: -0.01549  b:-0.07311

 -0.20071 = (-0.21821 + -0.18322)/2.0
 sum -  nocc_ = 0.01134976
 On Iteration in Bisection 6
 a: 0.01135  b:-0.01549

 -0.20946 = (-0.21821 + -0.20071)/2.0
 sum -  nocc_ = -0.00205731
 On Iteration in Bisection 7
 a: -0.00206  b:-0.01549

 -0.20509 = (-0.20946 + -0.20071)/2.0
 sum -  nocc_ = 0.00463838
 On Iteration in Bisection 8
 a: 0.00464  b:-0.00206

 -0.20728 = (-0.20946 + -0.20509)/2.0
 sum -  nocc_ = 0.00128999
 On Iteration in Bisection 9
 a: 0.00129  b:-0.00206

 -0.20837 = (-0.20946 + -0.20728)/2.0
 sum -  nocc_ = -0.00038362
 On Iteration in Bisection 10
 a: -0.00038  b:-0.00206

 -0.20782 = (-0.20837 + -0.20728)/2.0
 sum -  nocc_ = 0.00045317
 On Iteration in Bisection 11
 a: 0.00045  b:-0.00038

 -0.20810 = (-0.20837 + -0.20782)/2.0
 sum -  nocc_ = 0.00003478
 On Iteration in Bisection 12
 a: 0.00003  b:-0.00038

 -0.20823 = (-0.20837 + -0.20810)/2.0
 sum -  nocc_ = -0.00017442
 On Iteration in Bisection 13
 a: -0.00017  b:-0.00038

 -0.20816 = (-0.20823 + -0.20810)/2.0
 sum -  nocc_ = -0.00006982
 On Iteration in Bisection 14
 a: -0.00007  b:-0.00017

 -0.20813 = (-0.20816 + -0.20810)/2.0
 sum -  nocc_ = -0.00001752
 On Iteration in Bisection 15
 a: -0.00002  b:-0.00007

 -0.20811 = (-0.20813 + -0.20810)/2.0
 sum -  nocc_ = 0.00000863
 On Iteration in Bisection 16
 a: 0.00001  b:-0.00002

 -0.20812 = (-0.20813 + -0.20811)/2.0
 sum -  nocc_ = -0.00000445
 On Iteration in Bisection 17
 a: -0.00000  b:-0.00002

 -0.20812 = (-0.20812 + -0.20811)/2.0
 sum -  nocc_ = 0.00000209
 On Iteration in Bisection 18
 a: 0.00000  b:-0.00000

 -0.20812 = (-0.20812 + -0.20812)/2.0
 sum -  nocc_ = -0.00000118
 On Iteration in Bisection 19
 a: -0.00000  b:-0.00000

 -0.20812 = (-0.20812 + -0.20812)/2.0
 sum -  nocc_ = 0.00000045
 On Iteration in Bisection 20
 a: 0.00000  b:-0.00000

 -0.20812 = (-0.20812 + -0.20812)/2.0
 sum -  nocc_ = -0.00000036
 On Iteration in Bisection 21
 a: -0.00000  b:-0.00000

 -0.20812 = (-0.20812 + -0.20812)/2.0
 sum -  nocc_ = 0.00000005
 On Iteration in Bisection 22
 a: 0.00000  b:-0.00000

 -0.20812 = (-0.20812 + -0.20812)/2.0
 sum -  nocc_ = -0.00000016
 On Iteration in Bisection 23
 a: -0.00000  b:-0.00000

 -0.20812 = (-0.20812 + -0.20812)/2.0
 sum -  nocc_ = -0.00000006
 On Iteration in Bisection 24
 a: -0.00000  b:-0.00000

 -0.20812 = (-0.20812 + -0.20812)/2.0
 sum -  nocc_ = -0.00000001
 ef = -0.20812 sum = 1.00000 

 Iter: 8  T:    20000.000  val:-0.208118  sumni 0.00000
 ne = 1.0000

 iter:9  failiter:9  energy:     -1.205831708830  total:     -0.911844370724  error:     -0.000008358887
 In Bisection function HOMO = -0.393  LUMO =  1.847

 0.72666 = (-0.39319 + 1.84650)/2.0
 sum -  nocc_ = 2.46000723
 On Iteration in Bisection 0
 a: 2.46001  b:-0.49711

 0.16673 = (-0.39319 + 0.72666)/2.0
 sum -  nocc_ = 0.95307029
 On Iteration in Bisection 1
 a: 0.95307  b:-0.49711

 -0.11323 = (-0.39319 + 0.16673)/2.0
 sum -  nocc_ = 0.18216833
 On Iteration in Bisection 2
 a: 0.18217  b:-0.49711

 -0.25321 = (-0.39319 + -0.11323)/2.0
 sum -  nocc_ = -0.07310683
 On Iteration in Bisection 3
 a: -0.07311  b:-0.49711

 -0.18322 = (-0.25321 + -0.11323)/2.0
 sum -  nocc_ = 0.03880097
 On Iteration in Bisection 4
 a: 0.03880  b:-0.07311

 -0.21821 = (-0.25321 + -0.18322)/2.0
 sum -  nocc_ = -0.01549396
 On Iteration in Bisection 5
 a: -0.01549  b:-0.07311

 -0.20071 = (-0.21821 + -0.18322)/2.0
 sum -  nocc_ = 0.01134748
 On Iteration in Bisection 6
 a: 0.01135  b:-0.01549

 -0.20946 = (-0.21821 + -0.20071)/2.0
 sum -  nocc_ = -0.00205932
 On Iteration in Bisection 7
 a: -0.00206  b:-0.01549

 -0.20509 = (-0.20946 + -0.20071)/2.0
 sum -  nocc_ = 0.00463624
 On Iteration in Bisection 8
 a: 0.00464  b:-0.00206

 -0.20728 = (-0.20946 + -0.20509)/2.0
 sum -  nocc_ = 0.00128792
 On Iteration in Bisection 9
 a: 0.00129  b:-0.00206

 -0.20837 = (-0.20946 + -0.20728)/2.0
 sum -  nocc_ = -0.00038566
 On Iteration in Bisection 10
 a: -0.00039  b:-0.00206

 -0.20782 = (-0.20837 + -0.20728)/2.0
 sum -  nocc_ = 0.00045112
 On Iteration in Bisection 11
 a: 0.00045  b:-0.00039

 -0.20810 = (-0.20837 + -0.20782)/2.0
 sum -  nocc_ = 0.00003273
 On Iteration in Bisection 12
 a: 0.00003  b:-0.00039

 -0.20823 = (-0.20837 + -0.20810)/2.0
 sum -  nocc_ = -0.00017647
 On Iteration in Bisection 13
 a: -0.00018  b:-0.00039

 -0.20816 = (-0.20823 + -0.20810)/2.0
 sum -  nocc_ = -0.00007187
 On Iteration in Bisection 14
 a: -0.00007  b:-0.00018

 -0.20813 = (-0.20816 + -0.20810)/2.0
 sum -  nocc_ = -0.00001957
 On Iteration in Bisection 15
 a: -0.00002  b:-0.00007

 -0.20811 = (-0.20813 + -0.20810)/2.0
 sum -  nocc_ = 0.00000658
 On Iteration in Bisection 16
 a: 0.00001  b:-0.00002

 -0.20812 = (-0.20813 + -0.20811)/2.0
 sum -  nocc_ = -0.00000650
 On Iteration in Bisection 17
 a: -0.00001  b:-0.00002

 -0.20812 = (-0.20812 + -0.20811)/2.0
 sum -  nocc_ = 0.00000004
 On Iteration in Bisection 18
 a: 0.00000  b:-0.00001

 -0.20812 = (-0.20812 + -0.20812)/2.0
 sum -  nocc_ = -0.00000323
 On Iteration in Bisection 19
 a: -0.00000  b:-0.00001

 -0.20812 = (-0.20812 + -0.20812)/2.0
 sum -  nocc_ = -0.00000159
 On Iteration in Bisection 20
 a: -0.00000  b:-0.00000

 -0.20812 = (-0.20812 + -0.20812)/2.0
 sum -  nocc_ = -0.00000078
 On Iteration in Bisection 21
 a: -0.00000  b:-0.00000

 -0.20812 = (-0.20812 + -0.20812)/2.0
 sum -  nocc_ = -0.00000037
 On Iteration in Bisection 22
 a: -0.00000  b:-0.00000

 -0.20812 = (-0.20812 + -0.20812)/2.0
 sum -  nocc_ = -0.00000016
 On Iteration in Bisection 23
 a: -0.00000  b:-0.00000

 -0.20812 = (-0.20812 + -0.20812)/2.0
 sum -  nocc_ = -0.00000006
 On Iteration in Bisection 24
 a: -0.00000  b:-0.00000

 -0.20812 = (-0.20812 + -0.20812)/2.0
 sum -  nocc_ = -0.00000001
 ef = -0.20812 sum = 1.00000 

 Iter: 9  T:    20000.000  val:-0.208118  sumni 0.00000
 ne = 1.0000

 iter:10  failiter:10  energy:     -1.205833311641  total:     -0.911845973535  error:     -0.000001602811
 In Bisection function HOMO = -0.393  LUMO =  1.847

 0.72666 = (-0.39319 + 1.84650)/2.0
 sum -  nocc_ = 2.46000656
 On Iteration in Bisection 0
 a: 2.46001  b:-0.49711

 0.16673 = (-0.39319 + 0.72666)/2.0
 sum -  nocc_ = 0.95306994
 On Iteration in Bisection 1
 a: 0.95307  b:-0.49711

 -0.11323 = (-0.39319 + 0.16673)/2.0
 sum -  nocc_ = 0.18216701
 On Iteration in Bisection 2
 a: 0.18217  b:-0.49711

 -0.25321 = (-0.39319 + -0.11323)/2.0
 sum -  nocc_ = -0.07310701
 On Iteration in Bisection 3
 a: -0.07311  b:-0.49711

 -0.18322 = (-0.25321 + -0.11323)/2.0
 sum -  nocc_ = 0.03880040
 On Iteration in Bisection 4
 a: 0.03880  b:-0.07311

 -0.21821 = (-0.25321 + -0.18322)/2.0
 sum -  nocc_ = -0.01549430
 On Iteration in Bisection 5
 a: -0.01549  b:-0.07311

 -0.20071 = (-0.21821 + -0.18322)/2.0
 sum -  nocc_ = 0.01134703
 On Iteration in Bisection 6
 a: 0.01135  b:-0.01549

 -0.20946 = (-0.21821 + -0.20071)/2.0
 sum -  nocc_ = -0.00205971
 On Iteration in Bisection 7
 a: -0.00206  b:-0.01549

 -0.20509 = (-0.20946 + -0.20071)/2.0
 sum -  nocc_ = 0.00463582
 On Iteration in Bisection 8
 a: 0.00464  b:-0.00206

 -0.20728 = (-0.20946 + -0.20509)/2.0
 sum -  nocc_ = 0.00128751
 On Iteration in Bisection 9
 a: 0.00129  b:-0.00206

 -0.20837 = (-0.20946 + -0.20728)/2.0
 sum -  nocc_ = -0.00038606
 On Iteration in Bisection 10
 a: -0.00039  b:-0.00206

 -0.20782 = (-0.20837 + -0.20728)/2.0
 sum -  nocc_ = 0.00045071
 On Iteration in Bisection 11
 a: 0.00045  b:-0.00039

 -0.20810 = (-0.20837 + -0.20782)/2.0
 sum -  nocc_ = 0.00003233
 On Iteration in Bisection 12
 a: 0.00003  b:-0.00039

 -0.20823 = (-0.20837 + -0.20810)/2.0
 sum -  nocc_ = -0.00017686
 On Iteration in Bisection 13
 a: -0.00018  b:-0.00039

 -0.20816 = (-0.20823 + -0.20810)/2.0
 sum -  nocc_ = -0.00007227
 On Iteration in Bisection 14
 a: -0.00007  b:-0.00018

 -0.20813 = (-0.20816 + -0.20810)/2.0
 sum -  nocc_ = -0.00001997
 On Iteration in Bisection 15
 a: -0.00002  b:-0.00007

 -0.20811 = (-0.20813 + -0.20810)/2.0
 sum -  nocc_ = 0.00000618
 On Iteration in Bisection 16
 a: 0.00001  b:-0.00002

 -0.20812 = (-0.20813 + -0.20811)/2.0
 sum -  nocc_ = -0.00000690
 On Iteration in Bisection 17
 a: -0.00001  b:-0.00002

 -0.20812 = (-0.20812 + -0.20811)/2.0
 sum -  nocc_ = -0.00000036
 On Iteration in Bisection 18
 a: -0.00000  b:-0.00001

 -0.20812 = (-0.20812 + -0.20811)/2.0
 sum -  nocc_ = 0.00000291
 On Iteration in Bisection 19
 a: 0.00000  b:-0.00000

 -0.20812 = (-0.20812 + -0.20812)/2.0
 sum -  nocc_ = 0.00000128
 On Iteration in Bisection 20
 a: 0.00000  b:-0.00000

 -0.20812 = (-0.20812 + -0.20812)/2.0
 sum -  nocc_ = 0.00000046
 On Iteration in Bisection 21
 a: 0.00000  b:-0.00000

 -0.20812 = (-0.20812 + -0.20812)/2.0
 sum -  nocc_ = 0.00000005
 On Iteration in Bisection 22
 a: 0.00000  b:-0.00000

 -0.20812 = (-0.20812 + -0.20812)/2.0
 sum -  nocc_ = -0.00000015
 On Iteration in Bisection 23
 a: -0.00000  b:-0.00000

 -0.20812 = (-0.20812 + -0.20812)/2.0
 sum -  nocc_ = -0.00000005
 On Iteration in Bisection 24
 a: -0.00000  b:-0.00000

 -0.20812 = (-0.20812 + -0.20812)/2.0
 sum -  nocc_ = -0.00000000
 ef = -0.20812 sum = 1.00000 

 Iter: 10  T:    20000.000  val:-0.208118  sumni 0.00000
 ne = 1.0000

 iter:11  failiter:11  energy:     -1.205833630075  total:     -0.911846291970  error:     -0.000000318435
 In Bisection function HOMO = -0.393  LUMO =  1.847

 0.72666 = (-0.39319 + 1.84650)/2.0
 sum -  nocc_ = 2.46000644
 On Iteration in Bisection 0
 a: 2.46001  b:-0.49711

 0.16673 = (-0.39319 + 0.72666)/2.0
 sum -  nocc_ = 0.95306987
 On Iteration in Bisection 1
 a: 0.95307  b:-0.49711

 -0.11323 = (-0.39319 + 0.16673)/2.0
 sum -  nocc_ = 0.18216675
 On Iteration in Bisection 2
 a: 0.18217  b:-0.49711

 -0.25321 = (-0.39319 + -0.11323)/2.0
 sum -  nocc_ = -0.07310705
 On Iteration in Bisection 3
 a: -0.07311  b:-0.49711

 -0.18322 = (-0.25321 + -0.11323)/2.0
 sum -  nocc_ = 0.03880028
 On Iteration in Bisection 4
 a: 0.03880  b:-0.07311

 -0.21821 = (-0.25321 + -0.18322)/2.0
 sum -  nocc_ = -0.01549436
 On Iteration in Bisection 5
 a: -0.01549  b:-0.07311

 -0.20071 = (-0.21821 + -0.18322)/2.0
 sum -  nocc_ = 0.01134694
 On Iteration in Bisection 6
 a: 0.01135  b:-0.01549

 -0.20946 = (-0.21821 + -0.20071)/2.0
 sum -  nocc_ = -0.00205978
 On Iteration in Bisection 7
 a: -0.00206  b:-0.01549

 -0.20509 = (-0.20946 + -0.20071)/2.0
 sum -  nocc_ = 0.00463574
 On Iteration in Bisection 8
 a: 0.00464  b:-0.00206

 -0.20728 = (-0.20946 + -0.20509)/2.0
 sum -  nocc_ = 0.00128743
 On Iteration in Bisection 9
 a: 0.00129  b:-0.00206

 -0.20837 = (-0.20946 + -0.20728)/2.0
 sum -  nocc_ = -0.00038614
 On Iteration in Bisection 10
 a: -0.00039  b:-0.00206

 -0.20782 = (-0.20837 + -0.20728)/2.0
 sum -  nocc_ = 0.00045064
 On Iteration in Bisection 11
 a: 0.00045  b:-0.00039

 -0.20810 = (-0.20837 + -0.20782)/2.0
 sum -  nocc_ = 0.00003225
 On Iteration in Bisection 12
 a: 0.00003  b:-0.00039

 -0.20823 = (-0.20837 + -0.20810)/2.0
 sum -  nocc_ = -0.00017694
 On Iteration in Bisection 13
 a: -0.00018  b:-0.00039

 -0.20816 = (-0.20823 + -0.20810)/2.0
 sum -  nocc_ = -0.00007235
 On Iteration in Bisection 14
 a: -0.00007  b:-0.00018

 -0.20813 = (-0.20816 + -0.20810)/2.0
 sum -  nocc_ = -0.00002005
 On Iteration in Bisection 15
 a: -0.00002  b:-0.00007

 -0.20811 = (-0.20813 + -0.20810)/2.0
 sum -  nocc_ = 0.00000610
 On Iteration in Bisection 16
 a: 0.00001  b:-0.00002

 -0.20812 = (-0.20813 + -0.20811)/2.0
 sum -  nocc_ = -0.00000697
 On Iteration in Bisection 17
 a: -0.00001  b:-0.00002

 -0.20812 = (-0.20812 + -0.20811)/2.0
 sum -  nocc_ = -0.00000044
 On Iteration in Bisection 18
 a: -0.00000  b:-0.00001

 -0.20812 = (-0.20812 + -0.20811)/2.0
 sum -  nocc_ = 0.00000283
 On Iteration in Bisection 19
 a: 0.00000  b:-0.00000

 -0.20812 = (-0.20812 + -0.20812)/2.0
 sum -  nocc_ = 0.00000120
 On Iteration in Bisection 20
 a: 0.00000  b:-0.00000

 -0.20812 = (-0.20812 + -0.20812)/2.0
 sum -  nocc_ = 0.00000038
 On Iteration in Bisection 21
 a: 0.00000  b:-0.00000

 -0.20812 = (-0.20812 + -0.20812)/2.0
 sum -  nocc_ = -0.00000003
 On Iteration in Bisection 22
 a: -0.00000  b:-0.00000

 -0.20812 = (-0.20812 + -0.20812)/2.0
 sum -  nocc_ = 0.00000018
 On Iteration in Bisection 23
 a: 0.00000  b:-0.00000

 -0.20812 = (-0.20812 + -0.20812)/2.0
 sum -  nocc_ = 0.00000007
 On Iteration in Bisection 24
 a: 0.00000  b:-0.00000

 -0.20812 = (-0.20812 + -0.20812)/2.0
 sum -  nocc_ = 0.00000002
 On Iteration in Bisection 25
 a: 0.00000  b:-0.00000

 -0.20812 = (-0.20812 + -0.20812)/2.0
 sum -  nocc_ = -0.00000000
 ef = -0.20812 sum = 1.00000 

 Iter: 11  T:    20000.000  val:-0.208118  sumni 0.00000
 ne = 1.0000

 iter:12  failiter:12  energy:     -1.205833683264  total:     -0.911846345158  error:     -0.000000053188
 In Bisection function HOMO = -0.393  LUMO =  1.847

 0.72666 = (-0.39319 + 1.84650)/2.0
 sum -  nocc_ = 2.46000641
 On Iteration in Bisection 0
 a: 2.46001  b:-0.49711

 0.16673 = (-0.39319 + 0.72666)/2.0
 sum -  nocc_ = 0.95306986
 On Iteration in Bisection 1
 a: 0.95307  b:-0.49711

 -0.11323 = (-0.39319 + 0.16673)/2.0
 sum -  nocc_ = 0.18216670
 On Iteration in Bisection 2
 a: 0.18217  b:-0.49711

 -0.25321 = (-0.39319 + -0.11323)/2.0
 sum -  nocc_ = -0.07310706
 On Iteration in Bisection 3
 a: -0.07311  b:-0.49711

 -0.18322 = (-0.25321 + -0.11323)/2.0
 sum -  nocc_ = 0.03880026
 On Iteration in Bisection 4
 a: 0.03880  b:-0.07311

 -0.21821 = (-0.25321 + -0.18322)/2.0
 sum -  nocc_ = -0.01549438
 On Iteration in Bisection 5
 a: -0.01549  b:-0.07311

 -0.20071 = (-0.21821 + -0.18322)/2.0
 sum -  nocc_ = 0.01134692
 On Iteration in Bisection 6
 a: 0.01135  b:-0.01549

 -0.20946 = (-0.21821 + -0.20071)/2.0
 sum -  nocc_ = -0.00205980
 On Iteration in Bisection 7
 a: -0.00206  b:-0.01549

 -0.20509 = (-0.20946 + -0.20071)/2.0
 sum -  nocc_ = 0.00463572
 On Iteration in Bisection 8
 a: 0.00464  b:-0.00206

 -0.20728 = (-0.20946 + -0.20509)/2.0
 sum -  nocc_ = 0.00128742
 On Iteration in Bisection 9
 a: 0.00129  b:-0.00206

 -0.20837 = (-0.20946 + -0.20728)/2.0
 sum -  nocc_ = -0.00038615
 On Iteration in Bisection 10
 a: -0.00039  b:-0.00206

 -0.20782 = (-0.20837 + -0.20728)/2.0
 sum -  nocc_ = 0.00045062
 On Iteration in Bisection 11
 a: 0.00045  b:-0.00039

 -0.20810 = (-0.20837 + -0.20782)/2.0
 sum -  nocc_ = 0.00003224
 On Iteration in Bisection 12
 a: 0.00003  b:-0.00039

 -0.20823 = (-0.20837 + -0.20810)/2.0
 sum -  nocc_ = -0.00017696
 On Iteration in Bisection 13
 a: -0.00018  b:-0.00039

 -0.20816 = (-0.20823 + -0.20810)/2.0
 sum -  nocc_ = -0.00007236
 On Iteration in Bisection 14
 a: -0.00007  b:-0.00018

 -0.20813 = (-0.20816 + -0.20810)/2.0
 sum -  nocc_ = -0.00002006
 On Iteration in Bisection 15
 a: -0.00002  b:-0.00007

 -0.20811 = (-0.20813 + -0.20810)/2.0
 sum -  nocc_ = 0.00000609
 On Iteration in Bisection 16
 a: 0.00001  b:-0.00002

 -0.20812 = (-0.20813 + -0.20811)/2.0
 sum -  nocc_ = -0.00000699
 On Iteration in Bisection 17
 a: -0.00001  b:-0.00002

 -0.20812 = (-0.20812 + -0.20811)/2.0
 sum -  nocc_ = -0.00000045
 On Iteration in Bisection 18
 a: -0.00000  b:-0.00001

 -0.20812 = (-0.20812 + -0.20811)/2.0
 sum -  nocc_ = 0.00000282
 On Iteration in Bisection 19
 a: 0.00000  b:-0.00000

 -0.20812 = (-0.20812 + -0.20812)/2.0
 sum -  nocc_ = 0.00000118
 On Iteration in Bisection 20
 a: 0.00000  b:-0.00000

 -0.20812 = (-0.20812 + -0.20812)/2.0
 sum -  nocc_ = 0.00000037
 On Iteration in Bisection 21
 a: 0.00000  b:-0.00000

 -0.20812 = (-0.20812 + -0.20812)/2.0
 sum -  nocc_ = -0.00000004
 On Iteration in Bisection 22
 a: -0.00000  b:-0.00000

 -0.20812 = (-0.20812 + -0.20812)/2.0
 sum -  nocc_ = 0.00000016
 On Iteration in Bisection 23
 a: 0.00000  b:-0.00000

 -0.20812 = (-0.20812 + -0.20812)/2.0
 sum -  nocc_ = 0.00000006
 On Iteration in Bisection 24
 a: 0.00000  b:-0.00000

 -0.20812 = (-0.20812 + -0.20812)/2.0
 sum -  nocc_ = 0.00000001
 ef = -0.20812 sum = 1.00000 

 Iter: 12  T:    20000.000  val:-0.208118  sumni 0.00000
 ne = 1.0000

 iter:13  failiter:13  energy:     -1.205833705243  total:     -0.911846367137  error:     -0.000000021979
 In Bisection function HOMO = -0.393  LUMO =  1.847

 0.72666 = (-0.39319 + 1.84650)/2.0
 sum -  nocc_ = 2.46000641
 On Iteration in Bisection 0
 a: 2.46001  b:-0.49711

 0.16673 = (-0.39319 + 0.72666)/2.0
 sum -  nocc_ = 0.95306986
 On Iteration in Bisection 1
 a: 0.95307  b:-0.49711

 -0.11323 = (-0.39319 + 0.16673)/2.0
 sum -  nocc_ = 0.18216669
 On Iteration in Bisection 2
 a: 0.18217  b:-0.49711

 -0.25321 = (-0.39319 + -0.11323)/2.0
 sum -  nocc_ = -0.07310706
 On Iteration in Bisection 3
 a: -0.07311  b:-0.49711

 -0.18322 = (-0.25321 + -0.11323)/2.0
 sum -  nocc_ = 0.03880026
 On Iteration in Bisection 4
 a: 0.03880  b:-0.07311

 -0.21821 = (-0.25321 + -0.18322)/2.0
 sum -  nocc_ = -0.01549438
 On Iteration in Bisection 5
 a: -0.01549  b:-0.07311

 -0.20071 = (-0.21821 + -0.18322)/2.0
 sum -  nocc_ = 0.01134692
 On Iteration in Bisection 6
 a: 0.01135  b:-0.01549

 -0.20946 = (-0.21821 + -0.20071)/2.0
 sum -  nocc_ = -0.00205980
 On Iteration in Bisection 7
 a: -0.00206  b:-0.01549

 -0.20509 = (-0.20946 + -0.20071)/2.0
 sum -  nocc_ = 0.00463572
 On Iteration in Bisection 8
 a: 0.00464  b:-0.00206

 -0.20728 = (-0.20946 + -0.20509)/2.0
 sum -  nocc_ = 0.00128741
 On Iteration in Bisection 9
 a: 0.00129  b:-0.00206

 -0.20837 = (-0.20946 + -0.20728)/2.0
 sum -  nocc_ = -0.00038615
 On Iteration in Bisection 10
 a: -0.00039  b:-0.00206

 -0.20782 = (-0.20837 + -0.20728)/2.0
 sum -  nocc_ = 0.00045062
 On Iteration in Bisection 11
 a: 0.00045  b:-0.00039

 -0.20810 = (-0.20837 + -0.20782)/2.0
 sum -  nocc_ = 0.00003223
 On Iteration in Bisection 12
 a: 0.00003  b:-0.00039

 -0.20823 = (-0.20837 + -0.20810)/2.0
[...]
 sum -  nocc_ = 0.03880026
 On Iteration in Bisection 4
 a: 0.03880  b:-0.07311

 -0.21821 = (-0.25321 + -0.18322)/2.0
 sum -  nocc_ = -0.01549438
 On Iteration in Bisection 5
 a: -0.01549  b:-0.07311

 -0.20071 = (-0.21821 + -0.18322)/2.0
 sum -  nocc_ = 0.01134692
 On Iteration in Bisection 6
 a: 0.01135  b:-0.01549

 -0.20946 = (-0.21821 + -0.20071)/2.0
 sum -  nocc_ = -0.00205980
 On Iteration in Bisection 7
 a: -0.00206  b:-0.01549

 -0.20509 = (-0.20946 + -0.20071)/2.0
 sum -  nocc_ = 0.00463572
 On Iteration in Bisection 8
 a: 0.00464  b:-0.00206

 -0.20728 = (-0.20946 + -0.20509)/2.0
 sum -  nocc_ = 0.00128741
 On Iteration in Bisection 9
 a: 0.00129  b:-0.00206

 -0.20837 = (-0.20946 + -0.20728)/2.0
 sum -  nocc_ = -0.00038615
 On Iteration in Bisection 10
 a: -0.00039  b:-0.00206

 -0.20782 = (-0.20837 + -0.20728)/2.0
 sum -  nocc_ = 0.00045062
 On Iteration in Bisection 11
 a: 0.00045  b:-0.00039

 -0.20810 = (-0.20837 + -0.20782)/2.0
 sum -  nocc_ = 0.00003223
 On Iteration in Bisection 12
 a: 0.00003  b:-0.00039

 -0.20823 = (-0.20837 + -0.20810)/2.0
 sum -  nocc_ = -0.00017696
 On Iteration in Bisection 13
 a: -0.00018  b:-0.00039

 -0.20816 = (-0.20823 + -0.20810)/2.0
 sum -  nocc_ = -0.00007236
 On Iteration in Bisection 14
 a: -0.00007  b:-0.00018

 -0.20813 = (-0.20816 + -0.20810)/2.0
 sum -  nocc_ = -0.00002007
 On Iteration in Bisection 15
 a: -0.00002  b:-0.00007

 -0.20811 = (-0.20813 + -0.20810)/2.0
 sum -  nocc_ = 0.00000608
 On Iteration in Bisection 16
 a: 0.00001  b:-0.00002

 -0.20812 = (-0.20813 + -0.20811)/2.0
 sum -  nocc_ = -0.00000699
 On Iteration in Bisection 17
 a: -0.00001  b:-0.00002

 -0.20812 = (-0.20812 + -0.20811)/2.0
 sum -  nocc_ = -0.00000045
 On Iteration in Bisection 18
 a: -0.00000  b:-0.00001

 -0.20812 = (-0.20812 + -0.20811)/2.0
 sum -  nocc_ = 0.00000281
 On Iteration in Bisection 19
 a: 0.00000  b:-0.00000

 -0.20812 = (-0.20812 + -0.20812)/2.0
 sum -  nocc_ = 0.00000118
 On Iteration in Bisection 20
 a: 0.00000  b:-0.00000

 -0.20812 = (-0.20812 + -0.20812)/2.0
 sum -  nocc_ = 0.00000036
 On Iteration in Bisection 21
 a: 0.00000  b:-0.00000

 -0.20812 = (-0.20812 + -0.20812)/2.0
 sum -  nocc_ = -0.00000005
 On Iteration in Bisection 22
 a: -0.00000  b:-0.00000

 -0.20812 = (-0.20812 + -0.20812)/2.0
 sum -  nocc_ = 0.00000016
 On Iteration in Bisection 23
 a: 0.00000  b:-0.00000

 -0.20812 = (-0.20812 + -0.20812)/2.0
 sum -  nocc_ = 0.00000006
 On Iteration in Bisection 24
 a: 0.00000  b:-0.00000

 -0.20812 = (-0.20812 + -0.20812)/2.0
 sum -  nocc_ = 0.00000001
 ef = -0.20812 sum = 1.00000 

 Iter: 14  T:    20000.000  val:-0.208118  sumni 0.00000
 ne = 1.0000

 iter:15  failiter:15  energy:     -1.205833700582  total:     -0.911846362476  error:     -0.000000001284
 In Bisection function HOMO = -0.393  LUMO =  1.847

 0.72666 = (-0.39319 + 1.84650)/2.0
 sum -  nocc_ = 2.46000641
 On Iteration in Bisection 0
 a: 2.46001  b:-0.49711

 0.16673 = (-0.39319 + 0.72666)/2.0
 sum -  nocc_ = 0.95306986
 On Iteration in Bisection 1
 a: 0.95307  b:-0.49711

 -0.11323 = (-0.39319 + 0.16673)/2.0
 sum -  nocc_ = 0.18216669
 On Iteration in Bisection 2
 a: 0.18217  b:-0.49711

 -0.25321 = (-0.39319 + -0.11323)/2.0
 sum -  nocc_ = -0.07310706
 On Iteration in Bisection 3
 a: -0.07311  b:-0.49711

 -0.18322 = (-0.25321 + -0.11323)/2.0
 sum -  nocc_ = 0.03880026
 On Iteration in Bisection 4
 a: 0.03880  b:-0.07311

 -0.21821 = (-0.25321 + -0.18322)/2.0
 sum -  nocc_ = -0.01549438
 On Iteration in Bisection 5
 a: -0.01549  b:-0.07311

 -0.20071 = (-0.21821 + -0.18322)/2.0
 sum -  nocc_ = 0.01134692
 On Iteration in Bisection 6
 a: 0.01135  b:-0.01549

 -0.20946 = (-0.21821 + -0.20071)/2.0
 sum -  nocc_ = -0.00205980
 On Iteration in Bisection 7
 a: -0.00206  b:-0.01549

 -0.20509 = (-0.20946 + -0.20071)/2.0
 sum -  nocc_ = 0.00463572
 On Iteration in Bisection 8
 a: 0.00464  b:-0.00206

 -0.20728 = (-0.20946 + -0.20509)/2.0
 sum -  nocc_ = 0.00128741
 On Iteration in Bisection 9
 a: 0.00129  b:-0.00206

 -0.20837 = (-0.20946 + -0.20728)/2.0
 sum -  nocc_ = -0.00038615
 On Iteration in Bisection 10
 a: -0.00039  b:-0.00206

 -0.20782 = (-0.20837 + -0.20728)/2.0
 sum -  nocc_ = 0.00045062
 On Iteration in Bisection 11
 a: 0.00045  b:-0.00039

 -0.20810 = (-0.20837 + -0.20782)/2.0
 sum -  nocc_ = 0.00003223
 On Iteration in Bisection 12
 a: 0.00003  b:-0.00039

 -0.20823 = (-0.20837 + -0.20810)/2.0
 sum -  nocc_ = -0.00017696
 On Iteration in Bisection 13
 a: -0.00018  b:-0.00039

 -0.20816 = (-0.20823 + -0.20810)/2.0
 sum -  nocc_ = -0.00007236
 On Iteration in Bisection 14
 a: -0.00007  b:-0.00018

 -0.20813 = (-0.20816 + -0.20810)/2.0
 sum -  nocc_ = -0.00002007
 On Iteration in Bisection 15
 a: -0.00002  b:-0.00007

 -0.20811 = (-0.20813 + -0.20810)/2.0
 sum -  nocc_ = 0.00000608
 On Iteration in Bisection 16
 a: 0.00001  b:-0.00002

 -0.20812 = (-0.20813 + -0.20811)/2.0
 sum -  nocc_ = -0.00000699
 On Iteration in Bisection 17
 a: -0.00001  b:-0.00002

 -0.20812 = (-0.20812 + -0.20811)/2.0
 sum -  nocc_ = -0.00000045
 On Iteration in Bisection 18
 a: -0.00000  b:-0.00001

 -0.20812 = (-0.20812 + -0.20811)/2.0
 sum -  nocc_ = 0.00000281
 On Iteration in Bisection 19
 a: 0.00000  b:-0.00000

 -0.20812 = (-0.20812 + -0.20812)/2.0
 sum -  nocc_ = 0.00000118
 On Iteration in Bisection 20
 a: 0.00000  b:-0.00000

 -0.20812 = (-0.20812 + -0.20812)/2.0
 sum -  nocc_ = 0.00000036
 On Iteration in Bisection 21
 a: 0.00000  b:-0.00000

 -0.20812 = (-0.20812 + -0.20812)/2.0
 sum -  nocc_ = -0.00000005
 On Iteration in Bisection 22
 a: -0.00000  b:-0.00000

 -0.20812 = (-0.20812 + -0.20812)/2.0
 sum -  nocc_ = 0.00000016
 On Iteration in Bisection 23
 a: 0.00000  b:-0.00000

 -0.20812 = (-0.20812 + -0.20812)/2.0
 sum -  nocc_ = 0.00000006
 On Iteration in Bisection 24
 a: 0.00000  b:-0.00000

 -0.20812 = (-0.20812 + -0.20812)/2.0
 sum -  nocc_ = 0.00000001
 ef = -0.20812 sum = 1.00000 

 Iter: 15  T:    20000.000  val:-0.208118  sumni 0.00000
 ne = 1.0000

 iter:16  failiter:16  energy:     -1.205833700899  total:     -0.911846362794  error:     -0.000000000318
 In Bisection function HOMO = -0.393  LUMO =  1.847

 0.72666 = (-0.39319 + 1.84650)/2.0
 sum -  nocc_ = 2.46000641
 On Iteration in Bisection 0
 a: 2.46001  b:-0.49711

 0.16673 = (-0.39319 + 0.72666)/2.0
 sum -  nocc_ = 0.95306986
 On Iteration in Bisection 1
 a: 0.95307  b:-0.49711

 -0.11323 = (-0.39319 + 0.16673)/2.0
 sum -  nocc_ = 0.18216669
 On Iteration in Bisection 2
 a: 0.18217  b:-0.49711

 -0.25321 = (-0.39319 + -0.11323)/2.0
 sum -  nocc_ = -0.07310706
 On Iteration in Bisection 3
 a: -0.07311  b:-0.49711

 -0.18322 = (-0.25321 + -0.11323)/2.0
 sum -  nocc_ = 0.03880026
 On Iteration in Bisection 4
 a: 0.03880  b:-0.07311

 -0.21821 = (-0.25321 + -0.18322)/2.0
 sum -  nocc_ = -0.01549438
 On Iteration in Bisection 5
 a: -0.01549  b:-0.07311

 -0.20071 = (-0.21821 + -0.18322)/2.0
 sum -  nocc_ = 0.01134692
 On Iteration in Bisection 6
 a: 0.01135  b:-0.01549

 -0.20946 = (-0.21821 + -0.20071)/2.0
 sum -  nocc_ = -0.00205980
 On Iteration in Bisection 7
 a: -0.00206  b:-0.01549

 -0.20509 = (-0.20946 + -0.20071)/2.0
 sum -  nocc_ = 0.00463572
 On Iteration in Bisection 8
 a: 0.00464  b:-0.00206

 -0.20728 = (-0.20946 + -0.20509)/2.0
 sum -  nocc_ = 0.00128741
 On Iteration in Bisection 9
 a: 0.00129  b:-0.00206

 -0.20837 = (-0.20946 + -0.20728)/2.0
 sum -  nocc_ = -0.00038615
 On Iteration in Bisection 10
 a: -0.00039  b:-0.00206

 -0.20782 = (-0.20837 + -0.20728)/2.0
 sum -  nocc_ = 0.00045062
 On Iteration in Bisection 11
 a: 0.00045  b:-0.00039

 -0.20810 = (-0.20837 + -0.20782)/2.0
 sum -  nocc_ = 0.00003223
 On Iteration in Bisection 12
 a: 0.00003  b:-0.00039

 -0.20823 = (-0.20837 + -0.20810)/2.0
 sum -  nocc_ = -0.00017696
 On Iteration in Bisection 13
 a: -0.00018  b:-0.00039

 -0.20816 = (-0.20823 + -0.20810)/2.0
 sum -  nocc_ = -0.00007236
 On Iteration in Bisection 14
 a: -0.00007  b:-0.00018

 -0.20813 = (-0.20816 + -0.20810)/2.0
 sum -  nocc_ = -0.00002007
 On Iteration in Bisection 15
 a: -0.00002  b:-0.00007

 -0.20811 = (-0.20813 + -0.20810)/2.0
 sum -  nocc_ = 0.00000608
 On Iteration in Bisection 16
 a: 0.00001  b:-0.00002

 -0.20812 = (-0.20813 + -0.20811)/2.0
 sum -  nocc_ = -0.00000699
 On Iteration in Bisection 17
 a: -0.00001  b:-0.00002

 -0.20812 = (-0.20812 + -0.20811)/2.0
 sum -  nocc_ = -0.00000045
 On Iteration in Bisection 18
 a: -0.00000  b:-0.00001

 -0.20812 = (-0.20812 + -0.20811)/2.0
 sum -  nocc_ = 0.00000281
 On Iteration in Bisection 19
 a: 0.00000  b:-0.00000

 -0.20812 = (-0.20812 + -0.20812)/2.0
 sum -  nocc_ = 0.00000118
 On Iteration in Bisection 20
 a: 0.00000  b:-0.00000

 -0.20812 = (-0.20812 + -0.20812)/2.0
 sum -  nocc_ = 0.00000036
 On Iteration in Bisection 21
 a: 0.00000  b:-0.00000

 -0.20812 = (-0.20812 + -0.20812)/2.0
 sum -  nocc_ = -0.00000005
 On Iteration in Bisection 22
 a: -0.00000  b:-0.00000

 -0.20812 = (-0.20812 + -0.20812)/2.0
 sum -  nocc_ = 0.00000016
 On Iteration in Bisection 23
 a: 0.00000  b:-0.00000

 -0.20812 = (-0.20812 + -0.20812)/2.0
 sum -  nocc_ = 0.00000006
 On Iteration in Bisection 24
 a: 0.00000  b:-0.00000

 -0.20812 = (-0.20812 + -0.20812)/2.0
 sum -  nocc_ = 0.00000001
 ef = -0.20812 sum = 1.00000 

 Iter: 16  T:    20000.000  val:-0.208118  sumni 0.00000
 ne = 1.0000

 iter:17  failiter:17  energy:     -1.205833700959  total:     -0.911846362853  error:     -0.000000000060
 In Bisection function HOMO = -0.393  LUMO =  1.847

 0.72666 = (-0.39319 + 1.84650)/2.0
 sum -  nocc_ = 2.46000641
 On Iteration in Bisection 0
 a: 2.46001  b:-0.49711

 0.16673 = (-0.39319 + 0.72666)/2.0
 sum -  nocc_ = 0.95306986
 On Iteration in Bisection 1
 a: 0.95307  b:-0.49711

 -0.11323 = (-0.39319 + 0.16673)/2.0
 sum -  nocc_ = 0.18216669
 On Iteration in Bisection 2
 a: 0.18217  b:-0.49711

 -0.25321 = (-0.39319 + -0.11323)/2.0
 sum -  nocc_ = -0.07310706
 On Iteration in Bisection 3
 a: -0.07311  b:-0.49711

 -0.18322 = (-0.25321 + -0.11323)/2.0
 sum -  nocc_ = 0.03880026
 On Iteration in Bisection 4
 a: 0.03880  b:-0.07311

 -0.21821 = (-0.25321 + -0.18322)/2.0
 sum -  nocc_ = -0.01549438
 On Iteration in Bisection 5
 a: -0.01549  b:-0.07311

 -0.20071 = (-0.21821 + -0.18322)/2.0
 sum -  nocc_ = 0.01134692
 On Iteration in Bisection 6
 a: 0.01135  b:-0.01549

 -0.20946 = (-0.21821 + -0.20071)/2.0
 sum -  nocc_ = -0.00205980
 On Iteration in Bisection 7
 a: -0.00206  b:-0.01549

 -0.20509 = (-0.20946 + -0.20071)/2.0
 sum -  nocc_ = 0.00463572
 On Iteration in Bisection 8
 a: 0.00464  b:-0.00206

 -0.20728 = (-0.20946 + -0.20509)/2.0
 sum -  nocc_ = 0.00128741
 On Iteration in Bisection 9
 a: 0.00129  b:-0.00206

 -0.20837 = (-0.20946 + -0.20728)/2.0
 sum -  nocc_ = -0.00038615
 On Iteration in Bisection 10
 a: -0.00039  b:-0.00206

 -0.20782 = (-0.20837 + -0.20728)/2.0
 sum -  nocc_ = 0.00045062
 On Iteration in Bisection 11
 a: 0.00045  b:-0.00039

 -0.20810 = (-0.20837 + -0.20782)/2.0
 sum -  nocc_ = 0.00003223
 On Iteration in Bisection 12
 a: 0.00003  b:-0.00039

 -0.20823 = (-0.20837 + -0.20810)/2.0
 sum -  nocc_ = -0.00017696
 On Iteration in Bisection 13
 a: -0.00018  b:-0.00039

 -0.20816 = (-0.20823 + -0.20810)/2.0
 sum -  nocc_ = -0.00007236
 On Iteration in Bisection 14
 a: -0.00007  b:-0.00018

 -0.20813 = (-0.20816 + -0.20810)/2.0
 sum -  nocc_ = -0.00002007
 On Iteration in Bisection 15
 a: -0.00002  b:-0.00007

 -0.20811 = (-0.20813 + -0.20810)/2.0
 sum -  nocc_ = 0.00000608
 On Iteration in Bisection 16
 a: 0.00001  b:-0.00002

 -0.20812 = (-0.20813 + -0.20811)/2.0
 sum -  nocc_ = -0.00000699
 On Iteration in Bisection 17
 a: -0.00001  b:-0.00002

 -0.20812 = (-0.20812 + -0.20811)/2.0
 sum -  nocc_ = -0.00000045
 On Iteration in Bisection 18
 a: -0.00000  b:-0.00001

 -0.20812 = (-0.20812 + -0.20811)/2.0
 sum -  nocc_ = 0.00000281
 On Iteration in Bisection 19
 a: 0.00000  b:-0.00000

 -0.20812 = (-0.20812 + -0.20812)/2.0
 sum -  nocc_ = 0.00000118
 On Iteration in Bisection 20
 a: 0.00000  b:-0.00000

 -0.20812 = (-0.20812 + -0.20812)/2.0
 sum -  nocc_ = 0.00000036
 On Iteration in Bisection 21
 a: 0.00000  b:-0.00000

 -0.20812 = (-0.20812 + -0.20812)/2.0
 sum -  nocc_ = -0.00000005
 On Iteration in Bisection 22
 a: -0.00000  b:-0.00000

 -0.20812 = (-0.20812 + -0.20812)/2.0
 sum -  nocc_ = 0.00000016
 On Iteration in Bisection 23
 a: 0.00000  b:-0.00000

 -0.20812 = (-0.20812 + -0.20812)/2.0
 sum -  nocc_ = 0.00000006
 On Iteration in Bisection 24
 a: 0.00000  b:-0.00000

 -0.20812 = (-0.20812 + -0.20812)/2.0
 sum -  nocc_ = 0.00000001
 ef = -0.20812 sum = 1.00000 

 Iter: 17  T:    20000.000  val:-0.208118  sumni 0.00000
 ne = 1.0000

 iter:18  failiter:18  energy:     -1.205833700970  total:     -0.911846362865  error:     -0.000000000011
 In Bisection function HOMO = -0.393  LUMO =  1.847

 0.72666 = (-0.39319 + 1.84650)/2.0
 sum -  nocc_ = 2.46000641
 On Iteration in Bisection 0
 a: 2.46001  b:-0.49711

 0.16673 = (-0.39319 + 0.72666)/2.0
 sum -  nocc_ = 0.95306986
 On Iteration in Bisection 1
 a: 0.95307  b:-0.49711

 -0.11323 = (-0.39319 + 0.16673)/2.0
 sum -  nocc_ = 0.18216669
 On Iteration in Bisection 2
 a: 0.18217  b:-0.49711

 -0.25321 = (-0.39319 + -0.11323)/2.0
 sum -  nocc_ = -0.07310706
 On Iteration in Bisection 3
 a: -0.07311  b:-0.49711

 -0.18322 = (-0.25321 + -0.11323)/2.0
 sum -  nocc_ = 0.03880026
 On Iteration in Bisection 4
 a: 0.03880  b:-0.07311

 -0.21821 = (-0.25321 + -0.18322)/2.0
 sum -  nocc_ = -0.01549438
 On Iteration in Bisection 5
 a: -0.01549  b:-0.07311

 -0.20071 = (-0.21821 + -0.18322)/2.0
 sum -  nocc_ = 0.01134692
 On Iteration in Bisection 6
 a: 0.01135  b:-0.01549

 -0.20946 = (-0.21821 + -0.20071)/2.0
 sum -  nocc_ = -0.00205980
 On Iteration in Bisection 7
 a: -0.00206  b:-0.01549

 -0.20509 = (-0.20946 + -0.20071)/2.0
 sum -  nocc_ = 0.00463572
 On Iteration in Bisection 8
 a: 0.00464  b:-0.00206

 -0.20728 = (-0.20946 + -0.20509)/2.0
 sum -  nocc_ = 0.00128741
 On Iteration in Bisection 9
 a: 0.00129  b:-0.00206

 -0.20837 = (-0.20946 + -0.20728)/2.0
 sum -  nocc_ = -0.00038615
 On Iteration in Bisection 10
 a: -0.00039  b:-0.00206

 -0.20782 = (-0.20837 + -0.20728)/2.0
 sum -  nocc_ = 0.00045062
 On Iteration in Bisection 11
 a: 0.00045  b:-0.00039

 -0.20810 = (-0.20837 + -0.20782)/2.0
 sum -  nocc_ = 0.00003223
 On Iteration in Bisection 12
 a: 0.00003  b:-0.00039

 -0.20823 = (-0.20837 + -0.20810)/2.0
 sum -  nocc_ = -0.00017696
 On Iteration in Bisection 13
 a: -0.00018  b:-0.00039

 -0.20816 = (-0.20823 + -0.20810)/2.0
 sum -  nocc_ = -0.00007236
 On Iteration in Bisection 14
 a: -0.00007  b:-0.00018

 -0.20813 = (-0.20816 + -0.20810)/2.0
 sum -  nocc_ = -0.00002007
 On Iteration in Bisection 15
 a: -0.00002  b:-0.00007

 -0.20811 = (-0.20813 + -0.20810)/2.0
 sum -  nocc_ = 0.00000608
 On Iteration in Bisection 16
 a: 0.00001  b:-0.00002

 -0.20812 = (-0.20813 + -0.20811)/2.0
 sum -  nocc_ = -0.00000699
 On Iteration in Bisection 17
 a: -0.00001  b:-0.00002

 -0.20812 = (-0.20812 + -0.20811)/2.0
 sum -  nocc_ = -0.00000045
 On Iteration in Bisection 18
 a: -0.00000  b:-0.00001

 -0.20812 = (-0.20812 + -0.20811)/2.0
 sum -  nocc_ = 0.00000281
 On Iteration in Bisection 19
 a: 0.00000  b:-0.00000

 -0.20812 = (-0.20812 + -0.20812)/2.0
 sum -  nocc_ = 0.00000118
 On Iteration in Bisection 20
 a: 0.00000  b:-0.00000

 -0.20812 = (-0.20812 + -0.20812)/2.0
 sum -  nocc_ = 0.00000036
 On Iteration in Bisection 21
 a: 0.00000  b:-0.00000

 -0.20812 = (-0.20812 + -0.20812)/2.0
 sum -  nocc_ = -0.00000005
 On Iteration in Bisection 22
 a: -0.00000  b:-0.00000

 -0.20812 = (-0.20812 + -0.20812)/2.0
 sum -  nocc_ = 0.00000016
 On Iteration in Bisection 23
 a: 0.00000  b:-0.00000

 -0.20812 = (-0.20812 + -0.20812)/2.0
 sum -  nocc_ = 0.00000006
 On Iteration in Bisection 24
 a: 0.00000  b:-0.00000

 -0.20812 = (-0.20812 + -0.20812)/2.0
 sum -  nocc_ = 0.00000001
 ef = -0.20812 sum = 1.00000 

 Iter: 18  T:    20000.000  val:-0.208118  sumni 0.00000
 ne = 1.0000

 iter:19  failiter:19  energy:     -1.205833700973  total:     -0.911846362867  error:     -0.000000000002
 In Bisection function HOMO = -0.393  LUMO =  1.847

 0.72666 = (-0.39319 + 1.84650)/2.0
 sum -  nocc_ = 2.46000641
 On Iteration in Bisection 0
 a: 2.46001  b:-0.49711

 0.16673 = (-0.39319 + 0.72666)/2.0
 sum -  nocc_ = 0.95306986
 On Iteration in Bisection 1
 a: 0.95307  b:-0.49711

 -0.11323 = (-0.39319 + 0.16673)/2.0
 sum -  nocc_ = 0.18216669
 On Iteration in Bisection 2
 a: 0.18217  b:-0.49711

 -0.25321 = (-0.39319 + -0.11323)/2.0
 sum -  nocc_ = -0.07310706
 On Iteration in Bisection 3
 a: -0.07311  b:-0.49711

 -0.18322 = (-0.25321 + -0.11323)/2.0
 sum -  nocc_ = 0.03880026
 On Iteration in Bisection 4
 a: 0.03880  b:-0.07311

 -0.21821 = (-0.25321 + -0.18322)/2.0
 sum -  nocc_ = -0.01549438
 On Iteration in Bisection 5
 a: -0.01549  b:-0.07311

 -0.20071 = (-0.21821 + -0.18322)/2.0
 sum -  nocc_ = 0.01134692
 On Iteration in Bisection 6
 a: 0.01135  b:-0.01549

 -0.20946 = (-0.21821 + -0.20071)/2.0
 sum -  nocc_ = -0.00205980
 On Iteration in Bisection 7
 a: -0.00206  b:-0.01549

 -0.20509 = (-0.20946 + -0.20071)/2.0
 sum -  nocc_ = 0.00463572
 On Iteration in Bisection 8
 a: 0.00464  b:-0.00206

 -0.20728 = (-0.20946 + -0.20509)/2.0
 sum -  nocc_ = 0.00128741
 On Iteration in Bisection 9
 a: 0.00129  b:-0.00206

 -0.20837 = (-0.20946 + -0.20728)/2.0
 sum -  nocc_ = -0.00038615
 On Iteration in Bisection 10
 a: -0.00039  b:-0.00206

 -0.20782 = (-0.20837 + -0.20728)/2.0
 sum -  nocc_ = 0.00045062
 On Iteration in Bisection 11
 a: 0.00045  b:-0.00039

 -0.20810 = (-0.20837 + -0.20782)/2.0
 sum -  nocc_ = 0.00003223
 On Iteration in Bisection 12
 a: 0.00003  b:-0.00039

 -0.20823 = (-0.20837 + -0.20810)/2.0
 sum -  nocc_ = -0.00017696
 On Iteration in Bisection 13
 a: -0.00018  b:-0.00039

 -0.20816 = (-0.20823 + -0.20810)/2.0
 sum -  nocc_ = -0.00007236
 On Iteration in Bisection 14
 a: -0.00007  b:-0.00018

 -0.20813 = (-0.20816 + -0.20810)/2.0
 sum -  nocc_ = -0.00002007
 On Iteration in Bisection 15
 a: -0.00002  b:-0.00007

 -0.20811 = (-0.20813 + -0.20810)/2.0
 sum -  nocc_ = 0.00000608
 On Iteration in Bisection 16
 a: 0.00001  b:-0.00002

 -0.20812 = (-0.20813 + -0.20811)/2.0
 sum -  nocc_ = -0.00000699
 On Iteration in Bisection 17
 a: -0.00001  b:-0.00002

 -0.20812 = (-0.20812 + -0.20811)/2.0
 sum -  nocc_ = -0.00000045
 On Iteration in Bisection 18
 a: -0.00000  b:-0.00001

 -0.20812 = (-0.20812 + -0.20811)/2.0
 sum -  nocc_ = 0.00000281
 On Iteration in Bisection 19
 a: 0.00000  b:-0.00000

 -0.20812 = (-0.20812 + -0.20812)/2.0
 sum -  nocc_ = 0.00000118
 On Iteration in Bisection 20
 a: 0.00000  b:-0.00000

 -0.20812 = (-0.20812 + -0.20812)/2.0
 sum -  nocc_ = 0.00000036
 On Iteration in Bisection 21
 a: 0.00000  b:-0.00000

 -0.20812 = (-0.20812 + -0.20812)/2.0
 sum -  nocc_ = -0.00000005
 On Iteration in Bisection 22
 a: -0.00000  b:-0.00000

 -0.20812 = (-0.20812 + -0.20812)/2.0
 sum -  nocc_ = 0.00000016
 On Iteration in Bisection 23
 a: 0.00000  b:-0.00000

 -0.20812 = (-0.20812 + -0.20812)/2.0
 sum -  nocc_ = 0.00000006
 On Iteration in Bisection 24
 a: 0.00000  b:-0.00000

 -0.20812 = (-0.20812 + -0.20812)/2.0
 sum -  nocc_ = 0.00000001
 ef = -0.20812 sum = 1.00000 

 Iter: 19  T:    20000.000  val:-0.208118  sumni 0.00000
 ne = 1.0000

 iter:20  failiter:20  energy:     -1.205833700973  total:     -0.911846362868  error:     -0.000000000001
 FTHFEnergy =    -0.911846
 FD_dis[0] = 0.94893332 with -0.393188 eig value
 FD_dis[1] = 0.05106455 with -0.023044 eig value
 FD_dis[2] = 0.00000124 with 0.653089 eig value
 FD_dis[3] = 0.00000090 with 0.673547 eig value
 FD_dis[4] = 0.00000000 with 1.273214 eig value
 FD_dis[5] = 0.00000000 with 1.432993 eig value
 FD_dis[6] = 0.00000000 with 1.432993 eig value
 FD_dis[7] = 0.00000000 with 1.529522 eig value
 FD_dis[8] = 0.00000000 with 1.529522 eig value
 FD_dis[9] = 0.00000000 with 1.846504 eig value
*** PSI4 exiting successfully. Buy a developer a beer!
