    -----------------------------------------------------------------------
          PSI4: An Open-Source Ab Initio Electronic Structure Package
                              PSI 4.0 Driver

               Git: Rev {master} 556e8139d3cfa1f96ccffe2cdf22cc56a185d2b2

    J. M. Turney, A. C. Simmonett, R. M. Parrish, E. G. Hohenstein,
    F. A. Evangelista, J. T. Fermann, B. J. Mintz, L. A. Burns, J. J. Wilke,
    M. L. Abrams, N. J. Russ, M. L. Leininger, C. L. Janssen, E. T. Seidl,
    W. D. Allen, H. F. Schaefer, R. A. King, E. F. Valeev, C. D. Sherrill,
    and T. D. Crawford, WIREs Comput. Mol. Sci. 2, 556-565 (2012)
    (doi: 10.1002/wcms.93)

                         Additional Contributions by
    A. E. DePrince, M. Saitow, U. Bozkaya, A. Yu. Sokolov
    -----------------------------------------------------------------------

    Process ID:  14578
    PSI4DATADIR: /Users/kevinhannon/Programs/psi4cmake/psi4/lib
    Memory level set to 256.000 MB

  ==> Input File <==

--------------------------------------------------------------------------

# PYTHONPATH must include directory above plugin directory.
#     Define either externally or here, then import plugin.
sys.path.insert(0, '/Users/kevinhannon/Programs/Quantum_Programs/Quantum-Programs/GS/')
import scf

molecule {
0 1
H
H 1 2.70000
symmetry c1
units angstrom
}


set {
  basis cc-pvdz
  reference rhf
  scf_type  pk
}

set scf {
  DO_FTHF true
  MAX_ITER 130
  MAX_TEMP 20000
  TEMP_INCREMENT 0
  bisect  true
  bisect_iter  40
}
energy('rhf')
energy('scf')


--------------------------------------------------------------------------

*** tstart() called on Kevins-MacBook-Pro.local
*** at Sun Apr 12 15:46:07 2015

/Users/kevinhannon/Programs/Quantum_Programs/Quantum-Programs/GS/scf/scf.so loaded.

*** tstart() called on Kevins-MacBook-Pro.local
*** at Sun Apr 12 15:46:07 2015


         ---------------------------------------------------------
                                   SCF
            by Justin Turney, Rob Parrish, and Andy Simmonett
                              RHF Reference
                        1 Threads,    256 MiB Core
         ---------------------------------------------------------

  ==> Geometry <==

    Molecular point group: c1
    Full point group: D_inf_h

    Geometry (in Angstrom), charge = 0, multiplicity = 1:

       Center              X                  Y                   Z       
    ------------   -----------------  -----------------  -----------------
           H          0.000000000000     0.000000000000    -1.350000000000
           H          0.000000000000     0.000000000000     1.350000000000

  Running in c1 symmetry.

  Rotational constants: A = ************  B =      4.58896  C =      4.58896 [cm^-1]
  Rotational constants: A = ************  B = 137573.41639  C = 137573.41639 [MHz]
  Nuclear repulsion =    0.195991558737037

  Charge       = 0
  Multiplicity = 1
  Electrons    = 2
  Nalpha       = 1
  Nbeta        = 1

  ==> Algorithm <==

  SCF Algorithm Type is PK.
  DIIS enabled.
  MOM disabled.
  Fractional occupation disabled.
  Guess Type is CORE.
  Energy threshold   = 1.00e-06
  Density threshold  = 1.00e-06
  Integral threshold = 0.00e+00

  ==> Primary Basis <==

  Basis Set: CC-PVDZ
    Number of shells: 6
    Number of basis function: 10
    Number of Cartesian functions: 10
    Spherical Harmonics?: true
    Max angular momentum: 1

  ==> Pre-Iterations <==

   -------------------------------------------------------
    Irrep   Nso     Nmo     Nalpha   Nbeta   Ndocc  Nsocc
   -------------------------------------------------------
     A         10      10       0       0       0       0
   -------------------------------------------------------
    Total      10      10       1       1       1       0
   -------------------------------------------------------

  Starting with a DF guess...

 OEINTS: Overlap, kinetic, potential, dipole, and quadrupole integrals
         stored in file 35.

  ==> Integral Setup <==

  ==> DFJK: Density-Fitted J/K Matrices <==

    J tasked:                  Yes
    K tasked:                  Yes
    wK tasked:                  No
    OpenMP threads:              1
    Integrals threads:           1
    Memory (MB):               183
    Algorithm:                Core
    Integral Cache:           NONE
    Schwarz Cutoff:          1E-12
    Fitting Condition:       1E-12

   => Auxiliary Basis Set <=

  Basis Set: 
    Number of shells: 18
    Number of basis function: 46
    Number of Cartesian functions: 50
    Spherical Harmonics?: true
    Max angular momentum: 2

  Minimum eigenvalue in the overlap matrix is 2.5628003889E-01.
  Using Symmetric Orthogonalization.
  SCF Guess: Core (One-Electron) Hamiltonian.

  ==> Iterations <==

                           Total Energy        Delta E     RMS |[F,P]|

   @DF-RHF iter   1:    -0.82890709259507   -8.28907e-01   1.24716e-02 
   @DF-RHF iter   2:    -0.84744728809739   -1.85402e-02   2.13505e-03 DIIS
   @DF-RHF iter   3:    -0.84801570008013   -5.68412e-04   2.77179e-05 DIIS
   @DF-RHF iter   4:    -0.84801576765908   -6.75789e-08   7.92578e-07 DIIS

  DF guess converged.

  ==> Integral Setup <==

 MINTS: Wrapper to libmints.
   by Justin Turney

   Calculation information:
      Number of atoms:                   2
      Number of AO shells:               6
      Number of SO shells:               6
      Number of primitives:             10
      Number of atomic orbitals:        10
      Number of basis functions:        10

      Number of irreps:                  1
      Integral cutoff                 0.00e+00
      Number of functions per irrep: [  10 ]

 OEINTS: Overlap, kinetic, potential, dipole, and quadrupole integrals
         stored in file 35.

      Computing two-electron integrals...done
      Computed 512 non-zero two-electron integrals.
        Stored in file 33.

	Batch   1 pq = [       0,      55] index = [             0,1540]
  ==> DiskJK: Disk-Based J/K Matrices <==

    J tasked:                  Yes
    K tasked:                  Yes
    wK tasked:                  No
    Memory (MB):               183
    Schwarz Cutoff:          1E-12

   @RHF iter   5:    -0.84798760185545    2.81658e-05   7.48912e-06 DIIS
   @RHF iter   6:    -0.84798760809100   -6.23555e-09   1.25671e-06 DIIS
   @RHF iter   7:    -0.84798760828090   -1.89900e-10   2.45141e-08 DIIS

  ==> Post-Iterations <==

    Orbital Energies (a.u.)
    -----------------------

    Doubly Occupied:                                                      

       1A     -0.337927  

    Virtual:                                                              

       2A     -0.098779     3A      0.609333     4A      0.674305  
       5A      1.462583     6A      1.462583     7A      1.462590  
       8A      1.466913     9A      1.466913    10A      1.495458  

    Final Occupation by Irrep:
              A 
    DOCC [     1 ]

  Energy converged.

  @RHF Final Energy:    -0.84798760828090

   => Energetics <=

    Nuclear Repulsion Energy =              0.1959915587370370
    One-Electron Energy =                  -1.4121050122382548
    Two-Electron Energy =                   0.3681258452203209
    DFT Exchange-Correlation Energy =       0.0000000000000000
    Empirical Dispersion Energy =           0.0000000000000000
    PCM Polarization Energy =               0.0000000000000000
    EFP Energy =                            0.0000000000000000
    Total Energy =                         -0.8479876082808968

    Alert: EFP and PCM quantities not currently incorporated into SCF psivars.

Properties will be evaluated at   0.000000,   0.000000,   0.000000 Bohr
  ==> Properties <==


Properties computed using the SCF density matrix

  Nuclear Dipole Moment: (a.u.)
     X:     0.0000      Y:     0.0000      Z:     0.0000

  Electronic Dipole Moment: (a.u.)
     X:     0.0000      Y:     0.0000      Z:    -0.0000

  Dipole Moment: (a.u.)
     X:     0.0000      Y:     0.0000      Z:    -0.0000     Total:     0.0000

  Dipole Moment: (Debye)
     X:     0.0000      Y:     0.0000      Z:    -0.0000     Total:     0.0000


  Saving occupied orbitals to File 180.

*** tstop() called on Kevins-MacBook-Pro.local at Sun Apr 12 15:46:08 2015
Module time:
	user time   =       0.22 seconds =       0.00 minutes
	system time =       0.01 seconds =       0.00 minutes
	total time  =          1 seconds =       0.02 minutes
Total time:
	user time   =       0.23 seconds =       0.00 minutes
	system time =       0.01 seconds =       0.00 minutes
	total time  =          1 seconds =       0.02 minutes

*** tstart() called on Kevins-MacBook-Pro.local
*** at Sun Apr 12 15:46:08 2015


         ---------------------------------------------------------
                                   SCF
            by Justin Turney, Rob Parrish, and Andy Simmonett
                              RHF Reference
                        1 Threads,    256 MiB Core
         ---------------------------------------------------------

  ==> Geometry <==

    Molecular point group: c1
    Full point group: D_inf_h

    Geometry (in Angstrom), charge = 0, multiplicity = 1:

       Center              X                  Y                   Z       
    ------------   -----------------  -----------------  -----------------
           H          0.000000000000     0.000000000000    -1.350000000000
           H          0.000000000000     0.000000000000     1.350000000000

  Running in c1 symmetry.

  Rotational constants: A = ************  B =      4.58896  C =      4.58896 [cm^-1]
  Rotational constants: A = ************  B = 137573.41639  C = 137573.41639 [MHz]
  Nuclear repulsion =    0.195991558737037

  Charge       = 0
  Multiplicity = 1
  Electrons    = 2
  Nalpha       = 1
  Nbeta        = 1

  ==> Algorithm <==

  SCF Algorithm Type is PK.
  DIIS enabled.
  MOM disabled.
  Fractional occupation disabled.
  Guess Type is CORE.
  Energy threshold   = 1.00e-08
  Density threshold  = 1.00e-08
  Integral threshold = 0.00e+00

  ==> Primary Basis <==

  Basis Set: CC-PVDZ
    Number of shells: 6
    Number of basis function: 10
    Number of Cartesian functions: 10
    Spherical Harmonics?: true
    Max angular momentum: 1

  ==> Pre-Iterations <==

   -------------------------------------------------------
    Irrep   Nso     Nmo     Nalpha   Nbeta   Ndocc  Nsocc
   -------------------------------------------------------
     A         10      10       0       0       0       0
   -------------------------------------------------------
    Total      10      10       1       1       1       0
   -------------------------------------------------------

  Starting with a DF guess...

 OEINTS: Overlap, kinetic, potential, dipole, and quadrupole integrals
         stored in file 35.

  ==> Integral Setup <==

  ==> DFJK: Density-Fitted J/K Matrices <==

    J tasked:                  Yes
    K tasked:                  Yes
    wK tasked:                  No
    OpenMP threads:              1
    Integrals threads:           1
    Memory (MB):               183
    Algorithm:                Core
    Integral Cache:           NONE
    Schwarz Cutoff:          1E-12
    Fitting Condition:       1E-12

   => Auxiliary Basis Set <=

  Basis Set: 
    Number of shells: 18
    Number of basis function: 46
    Number of Cartesian functions: 50
    Spherical Harmonics?: true
    Max angular momentum: 2

  Minimum eigenvalue in the overlap matrix is 2.5628003889E-01.
  Using Symmetric Orthogonalization.
  SCF Guess: Core (One-Electron) Hamiltonian.

  ==> Iterations <==

                           Total Energy        Delta E     RMS |[F,P]|

   @DF-RHF iter   1:    -0.82890709259507   -8.28907e-01   1.24716e-02 
   @DF-RHF iter   2:    -0.84744728809739   -1.85402e-02   2.13505e-03 DIIS
   @DF-RHF iter   3:    -0.84801570008013   -5.68412e-04   2.77179e-05 DIIS
   @DF-RHF iter   4:    -0.84801576765908   -6.75789e-08   7.92578e-07 DIIS
   @DF-RHF iter   5:    -0.84801576771047   -5.13847e-11   2.07236e-10 DIIS

  DF guess converged.

  ==> Integral Setup <==

 MINTS: Wrapper to libmints.
   by Justin Turney

   Calculation information:
      Number of atoms:                   2
      Number of AO shells:               6
      Number of SO shells:               6
      Number of primitives:             10
      Number of atomic orbitals:        10
      Number of basis functions:        10

      Number of irreps:                  1
      Integral cutoff                 0.00e+00
      Number of functions per irrep: [  10 ]

 OEINTS: Overlap, kinetic, potential, dipole, and quadrupole integrals
         stored in file 35.

      Computing two-electron integrals...done
      Computed 512 non-zero two-electron integrals.
        Stored in file 33.

	Batch   1 pq = [       0,      55] index = [             0,1540]
  ==> DiskJK: Disk-Based J/K Matrices <==

    J tasked:                  Yes
    K tasked:                  Yes
    wK tasked:                  No
    Memory (MB):               183
    Schwarz Cutoff:          1E-12

   @RHF iter   6:    -0.84798760185580    2.81659e-05   7.48891e-06 DIIS
   @RHF iter   7:    -0.84798760809101   -6.23521e-09   1.25667e-06 DIIS
   @RHF iter   8:    -0.84798760828090   -1.89888e-10   2.45134e-08 DIIS
   @RHF iter   9:    -0.84798760828095   -5.32907e-14   3.53453e-13 DIIS

  ==> Post-Iterations <==

    Orbital Energies (a.u.)
    -----------------------

    Doubly Occupied:                                                      

       1A     -0.337927  

    Virtual:                                                              

       2A     -0.098779     3A      0.609333     4A      0.674305  
       5A      1.462583     6A      1.462583     7A      1.462590  
       8A      1.466913     9A      1.466913    10A      1.495458  

    Final Occupation by Irrep:
              A 
    DOCC [     1 ]

  Energy converged.

  @RHF Final Energy:    -0.84798760828095

   => Energetics <=

    Nuclear Repulsion Energy =              0.1959915587370370
    One-Electron Energy =                  -1.4121050424967281
    Two-Electron Energy =                   0.3681258754787417
    DFT Exchange-Correlation Energy =       0.0000000000000000
    Empirical Dispersion Energy =           0.0000000000000000
    PCM Polarization Energy =               0.0000000000000000
    EFP Energy =                            0.0000000000000000
    Total Energy =                         -0.8479876082809492

    Alert: EFP and PCM quantities not currently incorporated into SCF psivars.

Properties will be evaluated at   0.000000,   0.000000,   0.000000 Bohr
  ==> Properties <==


Properties computed using the SCF density matrix

  Nuclear Dipole Moment: (a.u.)
     X:     0.0000      Y:     0.0000      Z:     0.0000

  Electronic Dipole Moment: (a.u.)
     X:    -0.0000      Y:     0.0000      Z:    -0.0000

  Dipole Moment: (a.u.)
     X:    -0.0000      Y:     0.0000      Z:    -0.0000     Total:     0.0000

  Dipole Moment: (Debye)
     X:    -0.0000      Y:     0.0000      Z:    -0.0000     Total:     0.0000


  Saving occupied orbitals to File 180.

*** tstop() called on Kevins-MacBook-Pro.local at Sun Apr 12 15:46:08 2015
Module time:
	user time   =       0.18 seconds =       0.00 minutes
	system time =       0.02 seconds =       0.00 minutes
	total time  =          0 seconds =       0.00 minutes
Total time:
	user time   =       0.42 seconds =       0.01 minutes
	system time =       0.03 seconds =       0.00 minutes
	total time  =          1 seconds =       0.02 minutes
Reading options from the SCF block
Calling plugin scf.so.
    Molecular point group: c1
    Full point group: D_inf_h

    Geometry (in Angstrom), charge = 0, multiplicity = 1:

       Center              X                  Y                   Z       
    ------------   -----------------  -----------------  -----------------
           H          0.000000000000     0.000000000000    -1.350000000000
           H          0.000000000000     0.000000000000     1.350000000000


    Nuclear repulsion energy:       0.19599156

  ## Overlap (Symmetry 0) ##
  Irrep: 1 Size: 10 x 10

                 1                   2                   3                   4                   5

    1     1.00000000000000     0.68486025149275     0.00000000000000     0.00000000000000     0.00000000000000
    2     0.68486025149275     1.00000000000000     0.00000000000000     0.00000000000000     0.00000000000000
    3     0.00000000000000     0.00000000000000     1.00000000000000     0.00000000000000     0.00000000000000
    4     0.00000000000000     0.00000000000000     0.00000000000000     1.00000000000000     0.00000000000000
    5     0.00000000000000     0.00000000000000     0.00000000000000     0.00000000000000     1.00000000000000
    6     0.00205141799584     0.05409549553433     0.00195368348012     0.00000000000000     0.00000000000000
    7     0.05409549553433     0.20433043188526     0.04841616521590     0.00000000000000     0.00000000000000
    8    -0.00195368348012    -0.04841616521590    -0.00139234749195     0.00000000000000     0.00000000000000
    9     0.00000000000000     0.00000000000000     0.00000000000000     0.00007767179763     0.00000000000000
   10     0.00000000000000     0.00000000000000     0.00000000000000     0.00000000000000     0.00007767179763

                 6                   7                   8                   9                  10

    1     0.00205141799584     0.05409549553433    -0.00195368348012     0.00000000000000     0.00000000000000
    2     0.05409549553433     0.20433043188526    -0.04841616521590     0.00000000000000     0.00000000000000
    3     0.00195368348012     0.04841616521590    -0.00139234749195     0.00000000000000     0.00000000000000
    4     0.00000000000000     0.00000000000000     0.00000000000000     0.00007767179763     0.00000000000000
    5     0.00000000000000     0.00000000000000     0.00000000000000     0.00000000000000     0.00007767179763
    6     1.00000000000000     0.68486025149275     0.00000000000000     0.00000000000000     0.00000000000000
    7     0.68486025149275     1.00000000000000     0.00000000000000     0.00000000000000     0.00000000000000
    8     0.00000000000000     0.00000000000000     1.00000000000000     0.00000000000000     0.00000000000000
    9     0.00000000000000     0.00000000000000     0.00000000000000     1.00000000000000     0.00000000000000
   10     0.00000000000000     0.00000000000000     0.00000000000000     0.00000000000000     1.00000000000000



  ## Kinetic (Symmetry 0) ##
  Irrep: 1 Size: 10 x 10

                 1                   2                   3                   4                   5

    1     0.96945722711242     0.20123413106538     0.00000000000000     0.00000000000000     0.00000000000000
    2     0.20123413106538     0.18300000000000     0.00000000000000     0.00000000000000     0.00000000000000
    3     0.00000000000000     0.00000000000000     1.81750000000000     0.00000000000000     0.00000000000000
    4     0.00000000000000     0.00000000000000     0.00000000000000     1.81750000000000     0.00000000000000
    5     0.00000000000000     0.00000000000000     0.00000000000000     0.00000000000000     1.81750000000000
    6    -0.00399138178675    -0.01087999215978    -0.00505900592501     0.00000000000000     0.00000000000000
    7    -0.01087999215978    -0.00219411109506    -0.00222189376922     0.00000000000000     0.00000000000000
    8     0.00505900592501     0.00222189376922     0.00597951816350     0.00000000000000     0.00000000000000
    9     0.00000000000000     0.00000000000000     0.00000000000000    -0.00039318351957     0.00000000000000
   10     0.00000000000000     0.00000000000000     0.00000000000000     0.00000000000000    -0.00039318351957

                 6                   7                   8                   9                  10

    1    -0.00399138178675    -0.01087999215978     0.00505900592501     0.00000000000000     0.00000000000000
    2    -0.01087999215978    -0.00219411109506     0.00222189376922     0.00000000000000     0.00000000000000
    3    -0.00505900592501    -0.00222189376922     0.00597951816350     0.00000000000000     0.00000000000000
    4     0.00000000000000     0.00000000000000     0.00000000000000    -0.00039318351957     0.00000000000000
    5     0.00000000000000     0.00000000000000     0.00000000000000     0.00000000000000    -0.00039318351957
    6     0.96945722711242     0.20123413106538     0.00000000000000     0.00000000000000     0.00000000000000
    7     0.20123413106538     0.18300000000000     0.00000000000000     0.00000000000000     0.00000000000000
    8     0.00000000000000     0.00000000000000     1.81750000000000     0.00000000000000     0.00000000000000
    9     0.00000000000000     0.00000000000000     0.00000000000000     1.81750000000000     0.00000000000000
   10     0.00000000000000     0.00000000000000     0.00000000000000     0.00000000000000     1.81750000000000



  ## Potential (Symmetry 0) ##
  Irrep: 1 Size: 10 x 10

                 1                   2                   3                   4                   5

    1    -1.57385334342500    -0.78393402724385    -0.02416637946603     0.00000000000000     0.00000000000000
    2    -0.78393402724385    -0.75329824361072    -0.02266931450180     0.00000000000000     0.00000000000000
    3    -0.02416637946603    -0.02266931450180    -1.10825024841974     0.00000000000000     0.00000000000000
    4     0.00000000000000     0.00000000000000     0.00000000000000    -1.10048350508766     0.00000000000000
    5     0.00000000000000     0.00000000000000     0.00000000000000     0.00000000000000    -1.10048350508766
    6    -0.00161760528967    -0.05427176956133    -0.00155511215972     0.00000000000000     0.00000000000000
    7    -0.05427176956133    -0.14821795249083    -0.04389059164210     0.00000000000000     0.00000000000000
    8     0.00155511215972     0.04389059164210     0.00108512208725     0.00000000000000     0.00000000000000
    9     0.00000000000000     0.00000000000000     0.00000000000000    -0.00005767478024     0.00000000000000
   10     0.00000000000000     0.00000000000000     0.00000000000000     0.00000000000000    -0.00005767478024

                 6                   7                   8                   9                  10

    1    -0.00161760528967    -0.05427176956133     0.00155511215972     0.00000000000000     0.00000000000000
    2    -0.05427176956133    -0.14821795249083     0.04389059164210     0.00000000000000     0.00000000000000
    3    -0.00155511215972    -0.04389059164210     0.00108512208725     0.00000000000000     0.00000000000000
    4     0.00000000000000     0.00000000000000     0.00000000000000    -0.00005767478024     0.00000000000000
    5     0.00000000000000     0.00000000000000     0.00000000000000     0.00000000000000    -0.00005767478024
    6    -1.57385334342500    -0.78393402724385     0.02416637946603     0.00000000000000     0.00000000000000
    7    -0.78393402724385    -0.75329824361072     0.02266931450180     0.00000000000000     0.00000000000000
    8     0.02416637946603     0.02266931450180    -1.10825024841974     0.00000000000000     0.00000000000000
    9     0.00000000000000     0.00000000000000     0.00000000000000    -1.10048350508766     0.00000000000000
   10     0.00000000000000     0.00000000000000     0.00000000000000     0.00000000000000    -1.10048350508766



  ## One Electron Ints (Symmetry 0) ##
  Irrep: 1 Size: 10 x 10

                 1                   2                   3                   4                   5

    1    -0.60439611631257    -0.58269989617847    -0.02416637946603     0.00000000000000     0.00000000000000
    2    -0.58269989617847    -0.57029824361072    -0.02266931450180     0.00000000000000     0.00000000000000
    3    -0.02416637946603    -0.02266931450180     0.70924975158026     0.00000000000000     0.00000000000000
    4     0.00000000000000     0.00000000000000     0.00000000000000     0.71701649491234     0.00000000000000
    5     0.00000000000000     0.00000000000000     0.00000000000000     0.00000000000000     0.71701649491234
    6    -0.00560898707641    -0.06515176172110    -0.00661411808473     0.00000000000000     0.00000000000000
    7    -0.06515176172110    -0.15041206358590    -0.04611248541132     0.00000000000000     0.00000000000000
    8     0.00661411808473     0.04611248541132     0.00706464025075     0.00000000000000     0.00000000000000
    9     0.00000000000000     0.00000000000000     0.00000000000000    -0.00045085829981     0.00000000000000
   10     0.00000000000000     0.00000000000000     0.00000000000000     0.00000000000000    -0.00045085829981

                 6                   7                   8                   9                  10

    1    -0.00560898707641    -0.06515176172110     0.00661411808473     0.00000000000000     0.00000000000000
    2    -0.06515176172110    -0.15041206358590     0.04611248541132     0.00000000000000     0.00000000000000
    3    -0.00661411808473    -0.04611248541132     0.00706464025075     0.00000000000000     0.00000000000000
    4     0.00000000000000     0.00000000000000     0.00000000000000    -0.00045085829981     0.00000000000000
    5     0.00000000000000     0.00000000000000     0.00000000000000     0.00000000000000    -0.00045085829981
    6    -0.60439611631257    -0.58269989617847     0.02416637946603     0.00000000000000     0.00000000000000
    7    -0.58269989617847    -0.57029824361072     0.02266931450180     0.00000000000000     0.00000000000000
    8     0.02416637946603     0.02266931450180     0.70924975158026     0.00000000000000     0.00000000000000
    9     0.00000000000000     0.00000000000000     0.00000000000000     0.71701649491234     0.00000000000000
   10     0.00000000000000     0.00000000000000     0.00000000000000     0.00000000000000     0.71701649491234




	There are 0 unique integrals

  ## Fock (Symmetry 0) ##
  Irrep: 1 Size: 10 x 10

                 1                   2                   3                   4                   5

    1    -0.37225921131554    -0.35086493353837    -0.02440482568266    -0.00000000000000     0.00000000000000
    2    -0.35086493353837    -0.30621189628487    -0.00303938818857     0.00000000000000     0.00000000000000
    3    -0.02440482568266    -0.00303938818857     0.71402985281801    -0.00000000000000     0.00000000000000
    4    -0.00000000000000     0.00000000000000    -0.00000000000000     0.71701653425701     0.00000000000000
    5     0.00000000000000     0.00000000000000     0.00000000000000     0.00000000000000     0.71701653425701
    6    -0.00039045437308     0.01402905372117     0.03561858718317    -0.00000000000000     0.00000000000000
    7     0.01402905372117    -0.07287426967792    -0.07405167155587     0.00000000000000     0.00000000000000
    8    -0.03561858718317     0.07405167155587     0.00834886425299     0.00000000000000     0.00000000000000
    9    -0.00000000000000     0.00000000000000     0.00000000000000    -0.00050655026296     0.00000000000000
   10     0.00000000000000     0.00000000000000     0.00000000000000     0.00000000000000    -0.00050655026296

                 6                   7                   8                   9                  10

    1    -0.00039045437308     0.01402905372117    -0.03561858718317    -0.00000000000000     0.00000000000000
    2     0.01402905372117    -0.07287426967792     0.07405167155587     0.00000000000000     0.00000000000000
    3     0.03561858718317    -0.07405167155587     0.00834886425299     0.00000000000000     0.00000000000000
    4    -0.00000000000000     0.00000000000000     0.00000000000000    -0.00050655026296     0.00000000000000
    5     0.00000000000000     0.00000000000000     0.00000000000000     0.00000000000000    -0.00050655026296
    6    -0.37225921131554    -0.35086493353837     0.02440482568266    -0.00000000000000     0.00000000000000
    7    -0.35086493353837    -0.30621189628487     0.00303938818857     0.00000000000000     0.00000000000000
    8     0.02440482568266     0.00303938818857     0.71402985281801     0.00000000000000     0.00000000000000
    9    -0.00000000000000     0.00000000000000     0.00000000000000     0.71701653425701     0.00000000000000
   10     0.00000000000000     0.00000000000000     0.00000000000000     0.00000000000000     0.71701653425701



  ## C (Symmetry 0) ##
  Irrep: 1 Size: 10 x 10

                 1                   2                   3                   4                   5

    1    -0.91810053618523    -0.88184349375244    -0.03044337107489    -0.03895628572586     0.02339454537962
    2     0.96958811503158     0.85730746236265     0.01321374028427     0.12065160473564    -0.06477625572541
    3    -0.49933996566824     0.49797850202272     0.05835901445163     0.02581996999957    -0.01393393947815
    4     0.44655139632426    -0.53948926806643     0.09768921303981     0.00002746112751     0.00000000000000
    5     0.02513254412045    -0.05750495022122     0.70428948896130    -0.00000000000001     0.00000000000000
    6     0.02769664224716     0.04130620499856     0.00145306015248     0.36796790010828    -0.90871377684763
    7    -0.10186331780089    -0.12268834196338    -0.00349849356167    -0.92819330612615     0.37272164060081
    8     0.02867996923717     0.02637935315767     0.00051326980761     0.00475374049264    -0.70985012074541
    9    -0.00001734222487     0.00002095155066    -0.00000379384838    -0.70710678278605     0.00000000000000
   10    -0.06266496022396     0.07494647071975     0.70029870599774     0.00000000000000     0.00000000000000

                 6                   7                   8                   9                  10

    1    -0.35122444566723    -0.41253256327517     0.02994279774051    -0.03895628572583    -0.00308850574651
    2    -0.46034800838281    -0.32652206198619    -0.01195105183221     0.12065160473557    -0.01313631572628
    3    -0.50666338117545     0.49191552105836    -0.05835254759480     0.02581996999956    -0.01254911164798
    4    -0.44655139632426     0.53948926806643     0.09768921303981    -0.00002746112751     0.00000000000000
    5     0.02512767689613    -0.05749912916756    -0.70434388454533    -0.00000000000005     0.00000000000000
    6    -0.03231779636795    -0.00837913629496    -0.00140006510092     0.36796790010806    -0.90518515218709
    7     0.08400754209513     0.03119224616780     0.00333436246203    -0.92819330612558     0.36321415961553
    8    -0.01109720601736    -0.00655176431706    -0.00047814503593     0.00475374049264     0.70632149608486
    9     0.00001734222487    -0.00002095155066    -0.00000379384842     0.70710678278648     0.00000000000000
   10     0.06266300832310    -0.07494200443296     0.70035341154095     0.00000000000001     0.00000000000000




 In Bisection function HOMO = -0.714  LUMO =  0.735

 0.01054 = (-0.71427 + 0.73535)/2.0
 sum -  nocc_ = 2.03190264
 On Iteration in Bisection 0
 a: 2.03190  b:-0.15375

 -0.35187 = (-0.71427 + 0.01054)/2.0
 sum -  nocc_ = 0.99989642
 On Iteration in Bisection 1
 a: 0.99990  b:-0.15375

 -0.53307 = (-0.71427 + -0.35187)/2.0
 sum -  nocc_ = 0.84893834
 On Iteration in Bisection 2
 a: 0.84894  b:-0.15375

 -0.62367 = (-0.71427 + -0.53307)/2.0
 sum -  nocc_ = 0.49599649
 On Iteration in Bisection 3
 a: 0.49600  b:-0.15375

 -0.66897 = (-0.71427 + -0.62367)/2.0
 sum -  nocc_ = 0.19151960
 On Iteration in Bisection 4
 a: 0.19152  b:-0.15375

 -0.69162 = (-0.71427 + -0.66897)/2.0
 sum -  nocc_ = 0.01944715
 On Iteration in Bisection 5
 a: 0.01945  b:-0.15375

 -0.70295 = (-0.71427 + -0.69162)/2.0
 sum -  nocc_ = -0.06764654
 On Iteration in Bisection 6
 a: -0.06765  b:-0.15375

 -0.69729 = (-0.70295 + -0.69162)/2.0
 sum -  nocc_ = -0.02414451
 On Iteration in Bisection 7
 a: -0.02414  b:-0.06765

 -0.69445 = (-0.69729 + -0.69162)/2.0
 sum -  nocc_ = -0.00234983
 On Iteration in Bisection 8
 a: -0.00235  b:-0.02414

 -0.69304 = (-0.69445 + -0.69162)/2.0
 sum -  nocc_ = 0.00854963
 On Iteration in Bisection 9
 a: 0.00855  b:-0.00235

 -0.69375 = (-0.69445 + -0.69304)/2.0
 sum -  nocc_ = 0.00309999
 On Iteration in Bisection 10
 a: 0.00310  b:-0.00235

 -0.69410 = (-0.69445 + -0.69375)/2.0
 sum -  nocc_ = 0.00037508
 On Iteration in Bisection 11
 a: 0.00038  b:-0.00235

 -0.69428 = (-0.69445 + -0.69410)/2.0
 sum -  nocc_ = -0.00098738
 On Iteration in Bisection 12
 a: -0.00099  b:-0.00235

 -0.69419 = (-0.69428 + -0.69410)/2.0
 sum -  nocc_ = -0.00030615
 On Iteration in Bisection 13
 a: -0.00031  b:-0.00099

 -0.69414 = (-0.69419 + -0.69410)/2.0
 sum -  nocc_ = 0.00003447
 On Iteration in Bisection 14
 a: 0.00003  b:-0.00031

 -0.69417 = (-0.69419 + -0.69414)/2.0
 sum -  nocc_ = -0.00013584
 On Iteration in Bisection 15
 a: -0.00014  b:-0.00031

 -0.69416 = (-0.69417 + -0.69414)/2.0
 sum -  nocc_ = -0.00005069
 On Iteration in Bisection 16
 a: -0.00005  b:-0.00014

 -0.69415 = (-0.69416 + -0.69414)/2.0
 sum -  nocc_ = -0.00000811
 On Iteration in Bisection 17
 a: -0.00001  b:-0.00005

 -0.69415 = (-0.69415 + -0.69414)/2.0
 sum -  nocc_ = 0.00001318
 On Iteration in Bisection 18
 a: 0.00001  b:-0.00001

 -0.69415 = (-0.69415 + -0.69415)/2.0
 sum -  nocc_ = 0.00000253
 On Iteration in Bisection 19
 a: 0.00000  b:-0.00001

 -0.69415 = (-0.69415 + -0.69415)/2.0
 sum -  nocc_ = -0.00000279
 On Iteration in Bisection 20
 a: -0.00000  b:-0.00001

 -0.69415 = (-0.69415 + -0.69415)/2.0
 sum -  nocc_ = -0.00000013
 On Iteration in Bisection 21
 a: -0.00000  b:-0.00000

 -0.69415 = (-0.69415 + -0.69415)/2.0
 sum -  nocc_ = 0.00000120
 On Iteration in Bisection 22
 a: 0.00000  b:-0.00000

 -0.69415 = (-0.69415 + -0.69415)/2.0
 sum -  nocc_ = 0.00000054
 On Iteration in Bisection 23
 a: 0.00000  b:-0.00000

 -0.69415 = (-0.69415 + -0.69415)/2.0
 sum -  nocc_ = 0.00000020
 On Iteration in Bisection 24
 a: 0.00000  b:-0.00000

 -0.69415 = (-0.69415 + -0.69415)/2.0
 sum -  nocc_ = 0.00000004
 On Iteration in Bisection 25
 a: 0.00000  b:-0.00000

 -0.69415 = (-0.69415 + -0.69415)/2.0
 sum -  nocc_ = -0.00000004
 On Iteration in Bisection 26
 a: -0.00000  b:-0.00000

 -0.69415 = (-0.69415 + -0.69415)/2.0
 sum -  nocc_ = -0.00000000
 ef = -0.69415 sum = 1.00000 

 Iter: 0  T:    20000.000  val:-0.694149  sumni 0.00000
 ne = 1.0000

Nuc Replusion =       0.195991558737
 1st iteration =       0.713715601552
 In Bisection function HOMO = -0.308  LUMO =  1.902

 0.79695 = (-0.30793 + 1.90184)/2.0
 sum -  nocc_ = 2.34003608
 On Iteration in Bisection 0
 a: 2.34004  b:-0.49982

 0.24451 = (-0.30793 + 0.79695)/2.0
 sum -  nocc_ = 0.58262748
 On Iteration in Bisection 1
 a: 0.58263  b:-0.49982

 -0.03171 = (-0.30793 + 0.24451)/2.0
 sum -  nocc_ = 0.00099166
 On Iteration in Bisection 2
 a: 0.00099  b:-0.49982

 -0.16982 = (-0.30793 + -0.03171)/2.0
 sum -  nocc_ = -0.09994466
 On Iteration in Bisection 3
 a: -0.09994  b:-0.49982

 -0.10076 = (-0.16982 + -0.03171)/2.0
 sum -  nocc_ = -0.03197430
 On Iteration in Bisection 4
 a: -0.03197  b:-0.09994

 -0.06624 = (-0.10076 + -0.03171)/2.0
 sum -  nocc_ = -0.01361904
 On Iteration in Bisection 5
 a: -0.01362  b:-0.03197

 -0.04897 = (-0.06624 + -0.03171)/2.0
 sum -  nocc_ = -0.00610599
 On Iteration in Bisection 6
 a: -0.00611  b:-0.01362

 -0.04034 = (-0.04897 + -0.03171)/2.0
 sum -  nocc_ = -0.00253606
 On Iteration in Bisection 7
 a: -0.00254  b:-0.00611

 -0.03602 = (-0.04034 + -0.03171)/2.0
 sum -  nocc_ = -0.00077073
 On Iteration in Bisection 8
 a: -0.00077  b:-0.00254

 -0.03387 = (-0.03602 + -0.03171)/2.0
 sum -  nocc_ = 0.00011036
 On Iteration in Bisection 9
 a: 0.00011  b:-0.00077

 -0.03495 = (-0.03602 + -0.03387)/2.0
 sum -  nocc_ = -0.00033015
 On Iteration in Bisection 10
 a: -0.00033  b:-0.00077

 -0.03441 = (-0.03495 + -0.03387)/2.0
 sum -  nocc_ = -0.00010990
 On Iteration in Bisection 11
 a: -0.00011  b:-0.00033

 -0.03414 = (-0.03441 + -0.03387)/2.0
 sum -  nocc_ = 0.00000023
 On Iteration in Bisection 12
 a: 0.00000  b:-0.00011

 -0.03427 = (-0.03441 + -0.03414)/2.0
 sum -  nocc_ = -0.00005483
 On Iteration in Bisection 13
 a: -0.00005  b:-0.00011

 -0.03420 = (-0.03427 + -0.03414)/2.0
 sum -  nocc_ = -0.00002730
 On Iteration in Bisection 14
 a: -0.00003  b:-0.00005

 -0.03417 = (-0.03420 + -0.03414)/2.0
 sum -  nocc_ = -0.00001354
 On Iteration in Bisection 15
 a: -0.00001  b:-0.00003

 -0.03415 = (-0.03417 + -0.03414)/2.0
 sum -  nocc_ = -0.00000665
 On Iteration in Bisection 16
 a: -0.00001  b:-0.00001

 -0.03414 = (-0.03415 + -0.03414)/2.0
 sum -  nocc_ = -0.00000321
 On Iteration in Bisection 17
 a: -0.00000  b:-0.00001

 -0.03414 = (-0.03414 + -0.03414)/2.0
 sum -  nocc_ = -0.00000149
 On Iteration in Bisection 18
 a: -0.00000  b:-0.00000

 -0.03414 = (-0.03414 + -0.03414)/2.0
 sum -  nocc_ = -0.00000063
 On Iteration in Bisection 19
 a: -0.00000  b:-0.00000

 -0.03414 = (-0.03414 + -0.03414)/2.0
 sum -  nocc_ = -0.00000020
 On Iteration in Bisection 20
 a: -0.00000  b:-0.00000

 -0.03414 = (-0.03414 + -0.03414)/2.0
 sum -  nocc_ = 0.00000002
 On Iteration in Bisection 21
 a: 0.00000  b:-0.00000

 -0.03414 = (-0.03414 + -0.03414)/2.0
 sum -  nocc_ = -0.00000009
 On Iteration in Bisection 22
 a: -0.00000  b:-0.00000

 -0.03414 = (-0.03414 + -0.03414)/2.0
 sum -  nocc_ = -0.00000004
 On Iteration in Bisection 23
 a: -0.00000  b:-0.00000

 -0.03414 = (-0.03414 + -0.03414)/2.0
 sum -  nocc_ = -0.00000001
 On Iteration in Bisection 24
 a: -0.00000  b:-0.00000

 -0.03414 = (-0.03414 + -0.03414)/2.0
 sum -  nocc_ = 0.00000000
 ef = -0.03414 sum = 1.00000 

 Iter: 0  T:    20000.000  val:-0.034136  sumni 0.00000
 ne = 1.0000

 iter:1  failiter:1  energy:     -0.991378873003  total:     -0.795387314266  error:     -0.143391264722
 In Bisection function HOMO = -0.309  LUMO =  1.902

 0.79657 = (-0.30919 + 1.90232)/2.0
 sum -  nocc_ = 2.14165796
 On Iteration in Bisection 0
 a: 2.14166  b:-0.46455

 0.24369 = (-0.30919 + 0.79657)/2.0
 sum -  nocc_ = 1.08840462
 On Iteration in Bisection 1
 a: 1.08840  b:-0.46455

 -0.03275 = (-0.30919 + 0.24369)/2.0
 sum -  nocc_ = 0.73157322
 On Iteration in Bisection 2
 a: 0.73157  b:-0.46455

 -0.17097 = (-0.30919 + -0.03275)/2.0
 sum -  nocc_ = 0.14450179
 On Iteration in Bisection 3
 a: 0.14450  b:-0.46455

 -0.24008 = (-0.30919 + -0.17097)/2.0
 sum -  nocc_ = -0.15274436
 On Iteration in Bisection 4
 a: -0.15274  b:-0.46455

 -0.20552 = (-0.24008 + -0.17097)/2.0
 sum -  nocc_ = -0.00403055
 On Iteration in Bisection 5
 a: -0.00403  b:-0.15274

 -0.18825 = (-0.20552 + -0.17097)/2.0
 sum -  nocc_ = 0.06977718
 On Iteration in Bisection 6
 a: 0.06978  b:-0.00403

 -0.19688 = (-0.20552 + -0.18825)/2.0
 sum -  nocc_ = 0.03281558
 On Iteration in Bisection 7
 a: 0.03282  b:-0.00403

 -0.20120 = (-0.20552 + -0.19688)/2.0
 sum -  nocc_ = 0.01438601
 On Iteration in Bisection 8
 a: 0.01439  b:-0.00403

 -0.20336 = (-0.20552 + -0.20120)/2.0
 sum -  nocc_ = 0.00517712
 On Iteration in Bisection 9
 a: 0.00518  b:-0.00403

 -0.20444 = (-0.20552 + -0.20336)/2.0
 sum -  nocc_ = 0.00057326
 On Iteration in Bisection 10
 a: 0.00057  b:-0.00403

 -0.20498 = (-0.20552 + -0.20444)/2.0
 sum -  nocc_ = -0.00172863
 On Iteration in Bisection 11
 a: -0.00173  b:-0.00403

 -0.20471 = (-0.20498 + -0.20444)/2.0
 sum -  nocc_ = -0.00057769
 On Iteration in Bisection 12
 a: -0.00058  b:-0.00173

 -0.20458 = (-0.20471 + -0.20444)/2.0
 sum -  nocc_ = -0.00000221
 On Iteration in Bisection 13
 a: -0.00000  b:-0.00058

 -0.20451 = (-0.20458 + -0.20444)/2.0
 sum -  nocc_ = 0.00028552
 On Iteration in Bisection 14
 a: 0.00029  b:-0.00000

 -0.20454 = (-0.20458 + -0.20451)/2.0
 sum -  nocc_ = 0.00014165
 On Iteration in Bisection 15
 a: 0.00014  b:-0.00000

 -0.20456 = (-0.20458 + -0.20454)/2.0
 sum -  nocc_ = 0.00006972
 On Iteration in Bisection 16
 a: 0.00007  b:-0.00000

 -0.20457 = (-0.20458 + -0.20456)/2.0
 sum -  nocc_ = 0.00003375
 On Iteration in Bisection 17
 a: 0.00003  b:-0.00000

 -0.20457 = (-0.20458 + -0.20457)/2.0
 sum -  nocc_ = 0.00001577
 On Iteration in Bisection 18
 a: 0.00002  b:-0.00000

 -0.20458 = (-0.20458 + -0.20457)/2.0
 sum -  nocc_ = 0.00000678
 On Iteration in Bisection 19
 a: 0.00001  b:-0.00000

 -0.20458 = (-0.20458 + -0.20458)/2.0
 sum -  nocc_ = 0.00000228
 On Iteration in Bisection 20
 a: 0.00000  b:-0.00000

 -0.20458 = (-0.20458 + -0.20458)/2.0
 sum -  nocc_ = 0.00000003
 On Iteration in Bisection 21
 a: 0.00000  b:-0.00000

 -0.20458 = (-0.20458 + -0.20458)/2.0
 sum -  nocc_ = -0.00000109
 On Iteration in Bisection 22
 a: -0.00000  b:-0.00000

 -0.20458 = (-0.20458 + -0.20458)/2.0
 sum -  nocc_ = -0.00000053
 On Iteration in Bisection 23
 a: -0.00000  b:-0.00000

 -0.20458 = (-0.20458 + -0.20458)/2.0
 sum -  nocc_ = -0.00000025
 On Iteration in Bisection 24
 a: -0.00000  b:-0.00000

 -0.20458 = (-0.20458 + -0.20458)/2.0
 sum -  nocc_ = -0.00000011
 On Iteration in Bisection 25
 a: -0.00000  b:-0.00000

 -0.20458 = (-0.20458 + -0.20458)/2.0
 sum -  nocc_ = -0.00000004
 On Iteration in Bisection 26
 a: -0.00000  b:-0.00000

 -0.20458 = (-0.20458 + -0.20458)/2.0
 sum -  nocc_ = -0.00000000
 ef = -0.20458 sum = 1.00000 

 Iter: 1  T:    20000.000  val:-0.204577  sumni 0.00000
 ne = 1.0000

 iter:2  failiter:2  energy:     -0.967678582087  total:     -0.771687023350  error:      0.023700290916
 In Bisection function HOMO = -0.287  LUMO =  1.775

 0.74407 = (-0.28692 + 1.77505)/2.0
 sum -  nocc_ = 2.16337909
 On Iteration in Bisection 0
 a: 2.16338  b:-0.42906

 0.22857 = (-0.28692 + 0.74407)/2.0
 sum -  nocc_ = 1.01947285
 On Iteration in Bisection 1
 a: 1.01947  b:-0.42906

 -0.02917 = (-0.28692 + 0.22857)/2.0
 sum -  nocc_ = 0.80079812
 On Iteration in Bisection 2
 a: 0.80080  b:-0.42906

 -0.15805 = (-0.28692 + -0.02917)/2.0
 sum -  nocc_ = 0.25323164
 On Iteration in Bisection 3
 a: 0.25323  b:-0.42906

 -0.22248 = (-0.28692 + -0.15805)/2.0
 sum -  nocc_ = -0.09113408
 On Iteration in Bisection 4
 a: -0.09113  b:-0.42906

 -0.19027 = (-0.22248 + -0.15805)/2.0
 sum -  nocc_ = 0.08142600
 On Iteration in Bisection 5
 a: 0.08143  b:-0.09113

 -0.20638 = (-0.22248 + -0.19027)/2.0
 sum -  nocc_ = -0.00485820
 On Iteration in Bisection 6
 a: -0.00486  b:-0.09113

 -0.19832 = (-0.20638 + -0.19027)/2.0
 sum -  nocc_ = 0.03828984
 On Iteration in Bisection 7
 a: 0.03829  b:-0.00486

 -0.20235 = (-0.20638 + -0.19832)/2.0
 sum -  nocc_ = 0.01671638
 On Iteration in Bisection 8
 a: 0.01672  b:-0.00486

 -0.20436 = (-0.20638 + -0.20235)/2.0
 sum -  nocc_ = 0.00592913
 On Iteration in Bisection 9
 a: 0.00593  b:-0.00486

 -0.20537 = (-0.20638 + -0.20436)/2.0
 sum -  nocc_ = 0.00053546
 On Iteration in Bisection 10
 a: 0.00054  b:-0.00486

 -0.20587 = (-0.20638 + -0.20537)/2.0
 sum -  nocc_ = -0.00216137
 On Iteration in Bisection 11
 a: -0.00216  b:-0.00486

 -0.20562 = (-0.20587 + -0.20537)/2.0
 sum -  nocc_ = -0.00081296
 On Iteration in Bisection 12
 a: -0.00081  b:-0.00216

 -0.20549 = (-0.20562 + -0.20537)/2.0
 sum -  nocc_ = -0.00013875
 On Iteration in Bisection 13
 a: -0.00014  b:-0.00081

 -0.20543 = (-0.20549 + -0.20537)/2.0
 sum -  nocc_ = 0.00019836
 On Iteration in Bisection 14
 a: 0.00020  b:-0.00014

 -0.20546 = (-0.20549 + -0.20543)/2.0
 sum -  nocc_ = 0.00002981
 On Iteration in Bisection 15
 a: 0.00003  b:-0.00014

 -0.20548 = (-0.20549 + -0.20546)/2.0
 sum -  nocc_ = -0.00005447
 On Iteration in Bisection 16
 a: -0.00005  b:-0.00014

 -0.20547 = (-0.20548 + -0.20546)/2.0
 sum -  nocc_ = -0.00001233
 On Iteration in Bisection 17
 a: -0.00001  b:-0.00005

 -0.20547 = (-0.20547 + -0.20546)/2.0
 sum -  nocc_ = 0.00000874
 On Iteration in Bisection 18
 a: 0.00001  b:-0.00001

 -0.20547 = (-0.20547 + -0.20547)/2.0
 sum -  nocc_ = -0.00000180
 On Iteration in Bisection 19
 a: -0.00000  b:-0.00001

 -0.20547 = (-0.20547 + -0.20547)/2.0
 sum -  nocc_ = 0.00000347
 On Iteration in Bisection 20
 a: 0.00000  b:-0.00000

 -0.20547 = (-0.20547 + -0.20547)/2.0
 sum -  nocc_ = 0.00000084
 On Iteration in Bisection 21
 a: 0.00000  b:-0.00000

 -0.20547 = (-0.20547 + -0.20547)/2.0
 sum -  nocc_ = -0.00000048
 On Iteration in Bisection 22
 a: -0.00000  b:-0.00000

 -0.20547 = (-0.20547 + -0.20547)/2.0
 sum -  nocc_ = 0.00000018
 On Iteration in Bisection 23
 a: 0.00000  b:-0.00000

 -0.20547 = (-0.20547 + -0.20547)/2.0
 sum -  nocc_ = -0.00000015
 On Iteration in Bisection 24
 a: -0.00000  b:-0.00000

 -0.20547 = (-0.20547 + -0.20547)/2.0
 sum -  nocc_ = 0.00000001
 On Iteration in Bisection 25
 a: 0.00000  b:-0.00000

 -0.20547 = (-0.20547 + -0.20547)/2.0
 sum -  nocc_ = -0.00000007
 On Iteration in Bisection 26
 a: -0.00000  b:-0.00000

 -0.20547 = (-0.20547 + -0.20547)/2.0
 sum -  nocc_ = -0.00000003
 On Iteration in Bisection 27
 a: -0.00000  b:-0.00000

 -0.20547 = (-0.20547 + -0.20547)/2.0
 sum -  nocc_ = -0.00000001
 ef = -0.20547 sum = 1.00000 

 Iter: 2  T:    20000.000  val:-0.205469  sumni 0.00000
 ne = 1.0000

 iter:3  failiter:3  energy:     -0.944683944751  total:     -0.748692386014  error:      0.022994637336
 In Bisection function HOMO = -0.282  LUMO =  1.691

 0.70451 = (-0.28231 + 1.69132)/2.0
 sum -  nocc_ = 2.15988884
 On Iteration in Bisection 0
 a: 2.15989  b:-0.40236

 0.21110 = (-0.28231 + 0.70451)/2.0
 sum -  nocc_ = 1.00549827
 On Iteration in Bisection 1
 a: 1.00550  b:-0.40236

 -0.03560 = (-0.28231 + 0.21110)/2.0
 sum -  nocc_ = 0.82205659
 On Iteration in Bisection 2
 a: 0.82206  b:-0.40236

 -0.15896 = (-0.28231 + -0.03560)/2.0
 sum -  nocc_ = 0.30663410
 On Iteration in Bisection 3
 a: 0.30663  b:-0.40236

 -0.22063 = (-0.28231 + -0.15896)/2.0
 sum -  nocc_ = -0.05139327
 On Iteration in Bisection 4
 a: -0.05139  b:-0.40236

 -0.18979 = (-0.22063 + -0.15896)/2.0
 sum -  nocc_ = 0.12965900
 On Iteration in Bisection 5
 a: 0.12966  b:-0.05139

 -0.20521 = (-0.22063 + -0.18979)/2.0
 sum -  nocc_ = 0.03927250
 On Iteration in Bisection 6
 a: 0.03927  b:-0.05139

 -0.21292 = (-0.22063 + -0.20521)/2.0
 sum -  nocc_ = -0.00606579
 On Iteration in Bisection 7
 a: -0.00607  b:-0.05139

 -0.20907 = (-0.21292 + -0.20521)/2.0
 sum -  nocc_ = 0.01660695
 On Iteration in Bisection 8
 a: 0.01661  b:-0.00607

 -0.21099 = (-0.21292 + -0.20907)/2.0
 sum -  nocc_ = 0.00527086
 On Iteration in Bisection 9
 a: 0.00527  b:-0.00607

 -0.21196 = (-0.21292 + -0.21099)/2.0
 sum -  nocc_ = -0.00039747
 On Iteration in Bisection 10
 a: -0.00040  b:-0.00607

 -0.21148 = (-0.21196 + -0.21099)/2.0
 sum -  nocc_ = 0.00243670
 On Iteration in Bisection 11
 a: 0.00244  b:-0.00040

 -0.21172 = (-0.21196 + -0.21148)/2.0
 sum -  nocc_ = 0.00101961
 On Iteration in Bisection 12
 a: 0.00102  b:-0.00040

 -0.21184 = (-0.21196 + -0.21172)/2.0
 sum -  nocc_ = 0.00031107
 On Iteration in Bisection 13
 a: 0.00031  b:-0.00040

 -0.21190 = (-0.21196 + -0.21184)/2.0
 sum -  nocc_ = -0.00004320
 On Iteration in Bisection 14
 a: -0.00004  b:-0.00040

 -0.21187 = (-0.21190 + -0.21184)/2.0
 sum -  nocc_ = 0.00013393
 On Iteration in Bisection 15
 a: 0.00013  b:-0.00004

 -0.21188 = (-0.21190 + -0.21187)/2.0
 sum -  nocc_ = 0.00004537
 On Iteration in Bisection 16
 a: 0.00005  b:-0.00004

 -0.21189 = (-0.21190 + -0.21188)/2.0
 sum -  nocc_ = 0.00000108
 On Iteration in Bisection 17
 a: 0.00000  b:-0.00004

 -0.21189 = (-0.21190 + -0.21189)/2.0
 sum -  nocc_ = -0.00002106
 On Iteration in Bisection 18
 a: -0.00002  b:-0.00004

 -0.21189 = (-0.21189 + -0.21189)/2.0
 sum -  nocc_ = -0.00000999
 On Iteration in Bisection 19
 a: -0.00001  b:-0.00002

 -0.21189 = (-0.21189 + -0.21189)/2.0
 sum -  nocc_ = -0.00000445
 On Iteration in Bisection 20
 a: -0.00000  b:-0.00001

 -0.21189 = (-0.21189 + -0.21189)/2.0
 sum -  nocc_ = -0.00000169
 On Iteration in Bisection 21
 a: -0.00000  b:-0.00000

 -0.21189 = (-0.21189 + -0.21189)/2.0
 sum -  nocc_ = -0.00000030
 On Iteration in Bisection 22
 a: -0.00000  b:-0.00000

 -0.21189 = (-0.21189 + -0.21189)/2.0
 sum -  nocc_ = 0.00000039
 On Iteration in Bisection 23
 a: 0.00000  b:-0.00000

 -0.21189 = (-0.21189 + -0.21189)/2.0
 sum -  nocc_ = 0.00000004
 On Iteration in Bisection 24
 a: 0.00000  b:-0.00000

 -0.21189 = (-0.21189 + -0.21189)/2.0
 sum -  nocc_ = -0.00000013
 On Iteration in Bisection 25
 a: -0.00000  b:-0.00000

 -0.21189 = (-0.21189 + -0.21189)/2.0
 sum -  nocc_ = -0.00000004
 On Iteration in Bisection 26
 a: -0.00000  b:-0.00000

 -0.21189 = (-0.21189 + -0.21189)/2.0
 sum -  nocc_ = 0.00000000
 ef = -0.21189 sum = 1.00000 

 Iter: 3  T:    20000.000  val:-0.211891  sumni 0.00000
 ne = 1.0000

 iter:4  failiter:4  energy:     -0.940837592120  total:     -0.744846033383  error:      0.003846352632
 In Bisection function HOMO = -0.282  LUMO =  1.631

 0.67422 = (-0.28217 + 1.63061)/2.0
 sum -  nocc_ = 2.12029763
 On Iteration in Bisection 0
 a: 2.12030  b:-0.39488

 0.19602 = (-0.28217 + 0.67422)/2.0
 sum -  nocc_ = 0.99963405
 On Iteration in Bisection 1
 a: 0.99963  b:-0.39488

 -0.04308 = (-0.28217 + 0.19602)/2.0
 sum -  nocc_ = 0.81436255
 On Iteration in Bisection 2
 a: 0.81436  b:-0.39488

 -0.16263 = (-0.28217 + -0.04308)/2.0
 sum -  nocc_ = 0.30535086
 On Iteration in Bisection 3
 a: 0.30535  b:-0.39488

 -0.22240 = (-0.28217 + -0.16263)/2.0
 sum -  nocc_ = -0.04825311
 On Iteration in Bisection 4
 a: -0.04825  b:-0.39488

 -0.19251 = (-0.22240 + -0.16263)/2.0
 sum -  nocc_ = 0.13077941
 On Iteration in Bisection 5
 a: 0.13078  b:-0.04825

 -0.20746 = (-0.22240 + -0.19251)/2.0
 sum -  nocc_ = 0.04142780
 On Iteration in Bisection 6
 a: 0.04143  b:-0.04825

 -0.21493 = (-0.22240 + -0.20746)/2.0
 sum -  nocc_ = -0.00341606
 On Iteration in Bisection 7
 a: -0.00342  b:-0.04825

 -0.21119 = (-0.21493 + -0.20746)/2.0
 sum -  nocc_ = 0.01901052
 On Iteration in Bisection 8
 a: 0.01901  b:-0.00342

 -0.21306 = (-0.21493 + -0.21119)/2.0
 sum -  nocc_ = 0.00779770
 On Iteration in Bisection 9
 a: 0.00780  b:-0.00342

 -0.21399 = (-0.21493 + -0.21306)/2.0
 sum -  nocc_ = 0.00219085
 On Iteration in Bisection 10
 a: 0.00219  b:-0.00342

 -0.21446 = (-0.21493 + -0.21399)/2.0
 sum -  nocc_ = -0.00061261
 On Iteration in Bisection 11
 a: -0.00061  b:-0.00342

 -0.21423 = (-0.21446 + -0.21399)/2.0
 sum -  nocc_ = 0.00078912
 On Iteration in Bisection 12
 a: 0.00079  b:-0.00061

 -0.21434 = (-0.21446 + -0.21423)/2.0
 sum -  nocc_ = 0.00008826
 On Iteration in Bisection 13
 a: 0.00009  b:-0.00061

 -0.21440 = (-0.21446 + -0.21434)/2.0
 sum -  nocc_ = -0.00026217
 On Iteration in Bisection 14
 a: -0.00026  b:-0.00061

 -0.21437 = (-0.21440 + -0.21434)/2.0
 sum -  nocc_ = -0.00008696
 On Iteration in Bisection 15
 a: -0.00009  b:-0.00026

 -0.21436 = (-0.21437 + -0.21434)/2.0
 sum -  nocc_ = 0.00000065
 On Iteration in Bisection 16
 a: 0.00000  b:-0.00009

 -0.21437 = (-0.21437 + -0.21436)/2.0
 sum -  nocc_ = -0.00004315
 On Iteration in Bisection 17
 a: -0.00004  b:-0.00009

 -0.21436 = (-0.21437 + -0.21436)/2.0
 sum -  nocc_ = -0.00002125
 On Iteration in Bisection 18
 a: -0.00002  b:-0.00004

 -0.21436 = (-0.21436 + -0.21436)/2.0
 sum -  nocc_ = -0.00001030
 On Iteration in Bisection 19
 a: -0.00001  b:-0.00002

 -0.21436 = (-0.21436 + -0.21436)/2.0
 sum -  nocc_ = -0.00000482
 On Iteration in Bisection 20
 a: -0.00000  b:-0.00001

 -0.21436 = (-0.21436 + -0.21436)/2.0
 sum -  nocc_ = -0.00000209
 On Iteration in Bisection 21
 a: -0.00000  b:-0.00000

 -0.21436 = (-0.21436 + -0.21436)/2.0
 sum -  nocc_ = -0.00000072
 On Iteration in Bisection 22
 a: -0.00000  b:-0.00000

 -0.21436 = (-0.21436 + -0.21436)/2.0
 sum -  nocc_ = -0.00000003
 On Iteration in Bisection 23
 a: -0.00000  b:-0.00000

 -0.21436 = (-0.21436 + -0.21436)/2.0
 sum -  nocc_ = 0.00000031
 On Iteration in Bisection 24
 a: 0.00000  b:-0.00000

 -0.21436 = (-0.21436 + -0.21436)/2.0
 sum -  nocc_ = 0.00000014
 On Iteration in Bisection 25
 a: 0.00000  b:-0.00000

 -0.21436 = (-0.21436 + -0.21436)/2.0
 sum -  nocc_ = 0.00000005
 On Iteration in Bisection 26
 a: 0.00000  b:-0.00000

 -0.21436 = (-0.21436 + -0.21436)/2.0
 sum -  nocc_ = 0.00000001
 ef = -0.21436 sum = 1.00000 

 Iter: 4  T:    20000.000  val:-0.214359  sumni 0.00000
 ne = 1.0000

 iter:5  failiter:5  energy:     -0.941389217679  total:     -0.745397658942  error:     -0.000551625560
 In Bisection function HOMO = -0.284  LUMO =  1.587

 0.65103 = (-0.28446 + 1.58651)/2.0
 sum -  nocc_ = 2.03972555
 On Iteration in Bisection 0
 a: 2.03973  b:-0.39715

 0.18329 = (-0.28446 + 0.65103)/2.0
 sum -  nocc_ = 0.99665948
 On Iteration in Bisection 1
 a: 0.99666  b:-0.39715

 -0.05059 = (-0.28446 + 0.18329)/2.0
 sum -  nocc_ = 0.79730713
 On Iteration in Bisection 2
 a: 0.79731  b:-0.39715

 -0.16752 = (-0.28446 + -0.05059)/2.0
 sum -  nocc_ = 0.28449239
 On Iteration in Bisection 3
 a: 0.28449  b:-0.39715

 -0.22599 = (-0.28446 + -0.16752)/2.0
 sum -  nocc_ = -0.06034825
 On Iteration in Bisection 4
 a: -0.06035  b:-0.39715

 -0.19676 = (-0.22599 + -0.16752)/2.0
 sum -  nocc_ = 0.11383379
 On Iteration in Bisection 5
 a: 0.11383  b:-0.06035

 -0.21137 = (-0.22599 + -0.19676)/2.0
 sum -  nocc_ = 0.02683967
 On Iteration in Bisection 6
 a: 0.02684  b:-0.06035

 -0.21868 = (-0.22599 + -0.21137)/2.0
 sum -  nocc_ = -0.01676933
 On Iteration in Bisection 7
 a: -0.01677  b:-0.06035

 -0.21503 = (-0.21868 + -0.21137)/2.0
 sum -  nocc_ = 0.00503629
 On Iteration in Bisection 8
 a: 0.00504  b:-0.01677

 -0.21685 = (-0.21868 + -0.21503)/2.0
 sum -  nocc_ = -0.00586685
 On Iteration in Bisection 9
 a: -0.00587  b:-0.01677

 -0.21594 = (-0.21685 + -0.21503)/2.0
 sum -  nocc_ = -0.00041529
 On Iteration in Bisection 10
 a: -0.00042  b:-0.00587

 -0.21548 = (-0.21594 + -0.21503)/2.0
 sum -  nocc_ = 0.00231051
 On Iteration in Bisection 11
 a: 0.00231  b:-0.00042

 -0.21571 = (-0.21594 + -0.21548)/2.0
 sum -  nocc_ = 0.00094761
 On Iteration in Bisection 12
 a: 0.00095  b:-0.00042

 -0.21583 = (-0.21594 + -0.21571)/2.0
 sum -  nocc_ = 0.00026616
 On Iteration in Bisection 13
 a: 0.00027  b:-0.00042

 -0.21588 = (-0.21594 + -0.21583)/2.0
 sum -  nocc_ = -0.00007456
 On Iteration in Bisection 14
 a: -0.00007  b:-0.00042

 -0.21586 = (-0.21588 + -0.21583)/2.0
 sum -  nocc_ = 0.00009580
 On Iteration in Bisection 15
 a: 0.00010  b:-0.00007

 -0.21587 = (-0.21588 + -0.21586)/2.0
 sum -  nocc_ = 0.00001062
 On Iteration in Bisection 16
 a: 0.00001  b:-0.00007

 -0.21588 = (-0.21588 + -0.21587)/2.0
 sum -  nocc_ = -0.00003197
 On Iteration in Bisection 17
 a: -0.00003  b:-0.00007

 -0.21587 = (-0.21588 + -0.21587)/2.0
 sum -  nocc_ = -0.00001068
 On Iteration in Bisection 18
 a: -0.00001  b:-0.00003

 -0.21587 = (-0.21587 + -0.21587)/2.0
 sum -  nocc_ = -0.00000003
 On Iteration in Bisection 19
 a: -0.00000  b:-0.00001

 -0.21587 = (-0.21587 + -0.21587)/2.0
 sum -  nocc_ = 0.00000529
 On Iteration in Bisection 20
 a: 0.00001  b:-0.00000

 -0.21587 = (-0.21587 + -0.21587)/2.0
 sum -  nocc_ = 0.00000263
 On Iteration in Bisection 21
 a: 0.00000  b:-0.00000

 -0.21587 = (-0.21587 + -0.21587)/2.0
 sum -  nocc_ = 0.00000130
 On Iteration in Bisection 22
 a: 0.00000  b:-0.00000

 -0.21587 = (-0.21587 + -0.21587)/2.0
 sum -  nocc_ = 0.00000064
 On Iteration in Bisection 23
 a: 0.00000  b:-0.00000

 -0.21587 = (-0.21587 + -0.21587)/2.0
 sum -  nocc_ = 0.00000030
 On Iteration in Bisection 24
 a: 0.00000  b:-0.00000

 -0.21587 = (-0.21587 + -0.21587)/2.0
 sum -  nocc_ = 0.00000014
 On Iteration in Bisection 25
 a: 0.00000  b:-0.00000

 -0.21587 = (-0.21587 + -0.21587)/2.0
 sum -  nocc_ = 0.00000005
 On Iteration in Bisection 26
 a: 0.00000  b:-0.00000

 -0.21587 = (-0.21587 + -0.21587)/2.0
 sum -  nocc_ = 0.00000001
 On Iteration in Bisection 27
 a: 0.00000  b:-0.00000

 -0.21587 = (-0.21587 + -0.21587)/2.0
 sum -  nocc_ = -0.00000001
 ef = -0.21587 sum = 1.00000 

 Iter: 5  T:    20000.000  val:-0.215871  sumni 0.00000
 ne = 1.0000

 iter:6  failiter:6  energy:     -0.944015396684  total:     -0.748023837947  error:     -0.002626179005
 In Bisection function HOMO = -0.287  LUMO =  1.555

 0.63390 = (-0.28702 + 1.55482)/2.0
 sum -  nocc_ = 1.94456197
 On Iteration in Bisection 0
 a: 1.94456  b:-0.40212

 0.17344 = (-0.28702 + 0.63390)/2.0
 sum -  nocc_ = 0.99475346
 On Iteration in Bisection 1
 a: 0.99475  b:-0.40212

 -0.05679 = (-0.28702 + 0.17344)/2.0
 sum -  nocc_ = 0.77877732
 On Iteration in Bisection 2
 a: 0.77878  b:-0.40212

 -0.17190 = (-0.28702 + -0.05679)/2.0
 sum -  nocc_ = 0.26077953
 On Iteration in Bisection 3
 a: 0.26078  b:-0.40212

 -0.22946 = (-0.28702 + -0.17190)/2.0
 sum -  nocc_ = -0.07512654
 On Iteration in Bisection 4
 a: -0.07513  b:-0.40212

 -0.20068 = (-0.22946 + -0.17190)/2.0
 sum -  nocc_ = 0.09408078
 On Iteration in Bisection 5
 a: 0.09408  b:-0.07513

 -0.21507 = (-0.22946 + -0.20068)/2.0
 sum -  nocc_ = 0.00950648
 On Iteration in Bisection 6
 a: 0.00951  b:-0.07513

 -0.22226 = (-0.22946 + -0.21507)/2.0
 sum -  nocc_ = -0.03283533
 On Iteration in Bisection 7
 a: -0.03284  b:-0.07513

 -0.21867 = (-0.22226 + -0.21507)/2.0
 sum -  nocc_ = -0.01166666
 On Iteration in Bisection 8
 a: -0.01167  b:-0.03284

 -0.21687 = (-0.21867 + -0.21507)/2.0
 sum -  nocc_ = -0.00108014
 On Iteration in Bisection 9
 a: -0.00108  b:-0.01167

 -0.21597 = (-0.21687 + -0.21507)/2.0
 sum -  nocc_ = 0.00421322
 On Iteration in Bisection 10
 a: 0.00421  b:-0.00108

 -0.21642 = (-0.21687 + -0.21597)/2.0
 sum -  nocc_ = 0.00156654
 On Iteration in Bisection 11
 a: 0.00157  b:-0.00108

 -0.21664 = (-0.21687 + -0.21642)/2.0
 sum -  nocc_ = 0.00024320
 On Iteration in Bisection 12
 a: 0.00024  b:-0.00108

 -0.21676 = (-0.21687 + -0.21664)/2.0
 sum -  nocc_ = -0.00041847
 On Iteration in Bisection 13
 a: -0.00042  b:-0.00108

 -0.21670 = (-0.21676 + -0.21664)/2.0
 sum -  nocc_ = -0.00008763
 On Iteration in Bisection 14
 a: -0.00009  b:-0.00042

 -0.21667 = (-0.21670 + -0.21664)/2.0
 sum -  nocc_ = 0.00007778
 On Iteration in Bisection 15
 a: 0.00008  b:-0.00009

 -0.21669 = (-0.21670 + -0.21667)/2.0
 sum -  nocc_ = -0.00000493
 On Iteration in Bisection 16
 a: -0.00000  b:-0.00009

 -0.21668 = (-0.21669 + -0.21667)/2.0
 sum -  nocc_ = 0.00003643
 On Iteration in Bisection 17
 a: 0.00004  b:-0.00000

 -0.21668 = (-0.21669 + -0.21668)/2.0
 sum -  nocc_ = 0.00001575
 On Iteration in Bisection 18
 a: 0.00002  b:-0.00000

 -0.21668 = (-0.21669 + -0.21668)/2.0
 sum -  nocc_ = 0.00000541
 On Iteration in Bisection 19
 a: 0.00001  b:-0.00000

 -0.21668 = (-0.21669 + -0.21668)/2.0
 sum -  nocc_ = 0.00000024
 On Iteration in Bisection 20
 a: 0.00000  b:-0.00000

 -0.21669 = (-0.21669 + -0.21668)/2.0
 sum -  nocc_ = -0.00000234
 On Iteration in Bisection 21
 a: -0.00000  b:-0.00000

 -0.21669 = (-0.21669 + -0.21668)/2.0
 sum -  nocc_ = -0.00000105
 On Iteration in Bisection 22
 a: -0.00000  b:-0.00000

 -0.21668 = (-0.21669 + -0.21668)/2.0
 sum -  nocc_ = -0.00000040
 On Iteration in Bisection 23
 a: -0.00000  b:-0.00000

 -0.21668 = (-0.21668 + -0.21668)/2.0
 sum -  nocc_ = -0.00000008
 On Iteration in Bisection 24
 a: -0.00000  b:-0.00000

 -0.21668 = (-0.21668 + -0.21668)/2.0
 sum -  nocc_ = 0.00000008
 On Iteration in Bisection 25
 a: 0.00000  b:-0.00000

 -0.21668 = (-0.21668 + -0.21668)/2.0
 sum -  nocc_ = 0.00000000
 ef = -0.21668 sum = 1.00000 

 Iter: 6  T:    20000.000  val:-0.216685  sumni 0.00000
 ne = 1.0000

 iter:7  failiter:7  energy:     -0.946760703189  total:     -0.750769144452  error:     -0.002745306505
 In Bisection function HOMO = -0.289  LUMO =  1.533

 0.62179 = (-0.28909 + 1.53268)/2.0
 sum -  nocc_ = 1.86160234
 On Iteration in Bisection 0
 a: 1.86160  b:-0.40658

 0.16635 = (-0.28909 + 0.62179)/2.0
 sum -  nocc_ = 0.99342414
 On Iteration in Bisection 1
 a: 0.99342  b:-0.40658

 -0.06137 = (-0.28909 + 0.16635)/2.0
 sum -  nocc_ = 0.76301244
 On Iteration in Bisection 2
 a: 0.76301  b:-0.40658

 -0.17523 = (-0.28909 + -0.06137)/2.0
 sum -  nocc_ = 0.24137024
 On Iteration in Bisection 3
 a: 0.24137  b:-0.40658

 -0.23216 = (-0.28909 + -0.17523)/2.0
 sum -  nocc_ = -0.08725096
 On Iteration in Bisection 4
 a: -0.08725  b:-0.40658

 -0.20369 = (-0.23216 + -0.17523)/2.0
 sum -  nocc_ = 0.07795776
 On Iteration in Bisection 5
 a: 0.07796  b:-0.08725

 -0.21793 = (-0.23216 + -0.20369)/2.0
 sum -  nocc_ = -0.00465912
 On Iteration in Bisection 6
 a: -0.00466  b:-0.08725

 -0.21081 = (-0.21793 + -0.20369)/2.0
 sum -  nocc_ = 0.03667360
 On Iteration in Bisection 7
 a: 0.03667  b:-0.00466

 -0.21437 = (-0.21793 + -0.21081)/2.0
 sum -  nocc_ = 0.01600986
 On Iteration in Bisection 8
 a: 0.01601  b:-0.00466

 -0.21615 = (-0.21793 + -0.21437)/2.0
 sum -  nocc_ = 0.00567560
 On Iteration in Bisection 9
 a: 0.00568  b:-0.00466

 -0.21704 = (-0.21793 + -0.21615)/2.0
 sum -  nocc_ = 0.00050825
 On Iteration in Bisection 10
 a: 0.00051  b:-0.00466

 -0.21748 = (-0.21793 + -0.21704)/2.0
 sum -  nocc_ = -0.00207544
 On Iteration in Bisection 11
 a: -0.00208  b:-0.00466

 -0.21726 = (-0.21748 + -0.21704)/2.0
 sum -  nocc_ = -0.00078360
 On Iteration in Bisection 12
 a: -0.00078  b:-0.00208

 -0.21715 = (-0.21726 + -0.21704)/2.0
 sum -  nocc_ = -0.00013767
 On Iteration in Bisection 13
 a: -0.00014  b:-0.00078

 -0.21709 = (-0.21715 + -0.21704)/2.0
 sum -  nocc_ = 0.00018529
 On Iteration in Bisection 14
 a: 0.00019  b:-0.00014

 -0.21712 = (-0.21715 + -0.21709)/2.0
 sum -  nocc_ = 0.00002381
 On Iteration in Bisection 15
 a: 0.00002  b:-0.00014

 -0.21713 = (-0.21715 + -0.21712)/2.0
 sum -  nocc_ = -0.00005693
 On Iteration in Bisection 16
 a: -0.00006  b:-0.00014

 -0.21713 = (-0.21713 + -0.21712)/2.0
 sum -  nocc_ = -0.00001656
 On Iteration in Bisection 17
 a: -0.00002  b:-0.00006

 -0.21712 = (-0.21713 + -0.21712)/2.0
 sum -  nocc_ = 0.00000362
 On Iteration in Bisection 18
 a: 0.00000  b:-0.00002

 -0.21712 = (-0.21713 + -0.21712)/2.0
 sum -  nocc_ = -0.00000647
 On Iteration in Bisection 19
 a: -0.00001  b:-0.00002

 -0.21712 = (-0.21712 + -0.21712)/2.0
 sum -  nocc_ = -0.00000142
 On Iteration in Bisection 20
 a: -0.00000  b:-0.00001

 -0.21712 = (-0.21712 + -0.21712)/2.0
 sum -  nocc_ = 0.00000110
 On Iteration in Bisection 21
 a: 0.00000  b:-0.00000

 -0.21712 = (-0.21712 + -0.21712)/2.0
 sum -  nocc_ = -0.00000016
 On Iteration in Bisection 22
 a: -0.00000  b:-0.00000

 -0.21712 = (-0.21712 + -0.21712)/2.0
 sum -  nocc_ = 0.00000047
 On Iteration in Bisection 23
 a: 0.00000  b:-0.00000

 -0.21712 = (-0.21712 + -0.21712)/2.0
 sum -  nocc_ = 0.00000015
 On Iteration in Bisection 24
 a: 0.00000  b:-0.00000

 -0.21712 = (-0.21712 + -0.21712)/2.0
 sum -  nocc_ = -0.00000001
 ef = -0.21712 sum = 1.00000 

 Iter: 7  T:    20000.000  val:-0.217123  sumni 0.00000
 ne = 1.0000

 iter:8  failiter:8  energy:     -0.948960288689  total:     -0.752968729952  error:     -0.002199585500
 In Bisection function HOMO = -0.291  LUMO =  1.518

 0.61358 = (-0.29053 + 1.51770)/2.0
 sum -  nocc_ = 1.80111839
 On Iteration in Bisection 0
 a: 1.80112  b:-0.40979

 0.16152 = (-0.29053 + 0.61358)/2.0
 sum -  nocc_ = 0.99249904
 On Iteration in Bisection 1
 a: 0.99250  b:-0.40979

 -0.06450 = (-0.29053 + 0.16152)/2.0
 sum -  nocc_ = 0.75128212
 On Iteration in Bisection 2
 a: 0.75128  b:-0.40979

 -0.17752 = (-0.29053 + -0.06450)/2.0
 sum -  nocc_ = 0.22756678
 On Iteration in Bisection 3
 a: 0.22757  b:-0.40979

 -0.23403 = (-0.29053 + -0.17752)/2.0
 sum -  nocc_ = -0.09579983
 On Iteration in Bisection 4
 a: -0.09580  b:-0.40979

 -0.20577 = (-0.23403 + -0.17752)/2.0
 sum -  nocc_ = 0.06656440
 On Iteration in Bisection 5
 a: 0.06656  b:-0.09580

 -0.21990 = (-0.23403 + -0.20577)/2.0
 sum -  nocc_ = -0.01465239
 On Iteration in Bisection 6
 a: -0.01465  b:-0.09580

 -0.21284 = (-0.21990 + -0.20577)/2.0
 sum -  nocc_ = 0.02597112
 On Iteration in Bisection 7
 a: 0.02597  b:-0.01465

 -0.21637 = (-0.21990 + -0.21284)/2.0
 sum -  nocc_ = 0.00566018
 On Iteration in Bisection 8
 a: 0.00566  b:-0.01465

 -0.21813 = (-0.21990 + -0.21637)/2.0
 sum -  nocc_ = -0.00449627
 On Iteration in Bisection 9
 a: -0.00450  b:-0.01465

 -0.21725 = (-0.21813 + -0.21637)/2.0
 sum -  nocc_ = 0.00058196
 On Iteration in Bisection 10
 a: 0.00058  b:-0.00450

 -0.21769 = (-0.21813 + -0.21725)/2.0
 sum -  nocc_ = -0.00195716
 On Iteration in Bisection 11
 a: -0.00196  b:-0.00450

 -0.21747 = (-0.21769 + -0.21725)/2.0
 sum -  nocc_ = -0.00068760
 On Iteration in Bisection 12
 a: -0.00069  b:-0.00196

 -0.21736 = (-0.21747 + -0.21725)/2.0
 sum -  nocc_ = -0.00005282
 On Iteration in Bisection 13
 a: -0.00005  b:-0.00069

 -0.21731 = (-0.21736 + -0.21725)/2.0
 sum -  nocc_ = 0.00026457
 On Iteration in Bisection 14
 a: 0.00026  b:-0.00005

 -0.21733 = (-0.21736 + -0.21731)/2.0
 sum -  nocc_ = 0.00010587
 On Iteration in Bisection 15
 a: 0.00011  b:-0.00005

 -0.21735 = (-0.21736 + -0.21733)/2.0
 sum -  nocc_ = 0.00002653
 On Iteration in Bisection 16
 a: 0.00003  b:-0.00005

 -0.21735 = (-0.21736 + -0.21735)/2.0
 sum -  nocc_ = -0.00001315
 On Iteration in Bisection 17
 a: -0.00001  b:-0.00005

 -0.21735 = (-0.21735 + -0.21735)/2.0
 sum -  nocc_ = 0.00000669
 On Iteration in Bisection 18
 a: 0.00001  b:-0.00001

 -0.21735 = (-0.21735 + -0.21735)/2.0
 sum -  nocc_ = -0.00000323
 On Iteration in Bisection 19
 a: -0.00000  b:-0.00001

 -0.21735 = (-0.21735 + -0.21735)/2.0
 sum -  nocc_ = 0.00000173
 On Iteration in Bisection 20
 a: 0.00000  b:-0.00000

 -0.21735 = (-0.21735 + -0.21735)/2.0
 sum -  nocc_ = -0.00000075
 On Iteration in Bisection 21
 a: -0.00000  b:-0.00000

 -0.21735 = (-0.21735 + -0.21735)/2.0
 sum -  nocc_ = 0.00000049
 On Iteration in Bisection 22
 a: 0.00000  b:-0.00000

 -0.21735 = (-0.21735 + -0.21735)/2.0
 sum -  nocc_ = -0.00000013
 On Iteration in Bisection 23
 a: -0.00000  b:-0.00000

 -0.21735 = (-0.21735 + -0.21735)/2.0
 sum -  nocc_ = 0.00000018
 On Iteration in Bisection 24
 a: 0.00000  b:-0.00000

 -0.21735 = (-0.21735 + -0.21735)/2.0
 sum -  nocc_ = 0.00000002
 On Iteration in Bisection 25
 a: 0.00000  b:-0.00000

 -0.21735 = (-0.21735 + -0.21735)/2.0
 sum -  nocc_ = -0.00000005
 On Iteration in Bisection 26
 a: -0.00000  b:-0.00000

 -0.21735 = (-0.21735 + -0.21735)/2.0
 sum -  nocc_ = -0.00000001
 On Iteration in Bisection 27
 a: -0.00000  b:-0.00000

 -0.21735 = (-0.21735 + -0.21735)/2.0
 sum -  nocc_ = 0.00000001
 ef = -0.21735 sum = 1.00000 

 Iter: 8  T:    20000.000  val:-0.217351  sumni 0.00000
 ne = 1.0000

 iter:9  failiter:9  energy:     -0.950497421833  total:     -0.754505863096  error:     -0.001537133144
 In Bisection function HOMO = -0.291  LUMO =  1.508

 0.60826 = (-0.29146 + 1.50799)/2.0
 sum -  nocc_ = 1.76147711
 On Iteration in Bisection 0
 a: 1.76148  b:-0.41187

 0.15840 = (-0.29146 + 0.60826)/2.0
 sum -  nocc_ = 0.99188245
 On Iteration in Bisection 1
 a: 0.99188  b:-0.41187

 -0.06653 = (-0.29146 + 0.15840)/2.0
 sum -  nocc_ = 0.74331537
 On Iteration in Bisection 2
 a: 0.74332  b:-0.41187

 -0.17900 = (-0.29146 + -0.06653)/2.0
 sum -  nocc_ = 0.21851935
 On Iteration in Bisection 3
 a: 0.21852  b:-0.41187

 -0.23523 = (-0.29146 + -0.17900)/2.0
 sum -  nocc_ = -0.10135639
 On Iteration in Bisection 4
 a: -0.10136  b:-0.41187

 -0.20711 = (-0.23523 + -0.17900)/2.0
 sum -  nocc_ = 0.05913667
 On Iteration in Bisection 5
 a: 0.05914  b:-0.10136

 -0.22117 = (-0.23523 + -0.20711)/2.0
 sum -  nocc_ = -0.02115569
 On Iteration in Bisection 6
 a: -0.02116  b:-0.10136

 -0.21414 = (-0.22117 + -0.20711)/2.0
 sum -  nocc_ = 0.01900056
 On Iteration in Bisection 7
 a: 0.01900  b:-0.02116

 -0.21766 = (-0.22117 + -0.21414)/2.0
 sum -  nocc_ = -0.00107771
 On Iteration in Bisection 8
 a: -0.00108  b:-0.02116

 -0.21590 = (-0.21766 + -0.21414)/2.0
 sum -  nocc_ = 0.00896172
 On Iteration in Bisection 9
 a: 0.00896  b:-0.00108

 -0.21678 = (-0.21766 + -0.21590)/2.0
 sum -  nocc_ = 0.00394203
 On Iteration in Bisection 10
 a: 0.00394  b:-0.00108

 -0.21722 = (-0.21766 + -0.21678)/2.0
 sum -  nocc_ = 0.00143216
 On Iteration in Bisection 11
 a: 0.00143  b:-0.00108

 -0.21744 = (-0.21766 + -0.21722)/2.0
 sum -  nocc_ = 0.00017723
 On Iteration in Bisection 12
 a: 0.00018  b:-0.00108

 -0.21755 = (-0.21766 + -0.21744)/2.0
 sum -  nocc_ = -0.00045024
 On Iteration in Bisection 13
 a: -0.00045  b:-0.00108

 -0.21749 = (-0.21755 + -0.21744)/2.0
 sum -  nocc_ = -0.00013651
 On Iteration in Bisection 14
 a: -0.00014  b:-0.00045

 -0.21746 = (-0.21749 + -0.21744)/2.0
 sum -  nocc_ = 0.00002036
 On Iteration in Bisection 15
 a: 0.00002  b:-0.00014

 -0.21748 = (-0.21749 + -0.21746)/2.0
 sum -  nocc_ = -0.00005808
 On Iteration in Bisection 16
 a: -0.00006  b:-0.00014

 -0.21747 = (-0.21748 + -0.21746)/2.0
 sum -  nocc_ = -0.00001886
 On Iteration in Bisection 17
 a: -0.00002  b:-0.00006

 -0.21747 = (-0.21747 + -0.21746)/2.0
 sum -  nocc_ = 0.00000075
 On Iteration in Bisection 18
 a: 0.00000  b:-0.00002

 -0.21747 = (-0.21747 + -0.21747)/2.0
 sum -  nocc_ = -0.00000905
 On Iteration in Bisection 19
 a: -0.00001  b:-0.00002

 -0.21747 = (-0.21747 + -0.21747)/2.0
 sum -  nocc_ = -0.00000415
 On Iteration in Bisection 20
 a: -0.00000  b:-0.00001

 -0.21747 = (-0.21747 + -0.21747)/2.0
 sum -  nocc_ = -0.00000170
 On Iteration in Bisection 21
 a: -0.00000  b:-0.00000

 -0.21747 = (-0.21747 + -0.21747)/2.0
 sum -  nocc_ = -0.00000048
 On Iteration in Bisection 22
 a: -0.00000  b:-0.00000

 -0.21747 = (-0.21747 + -0.21747)/2.0
 sum -  nocc_ = 0.00000014
 On Iteration in Bisection 23
 a: 0.00000  b:-0.00000

 -0.21747 = (-0.21747 + -0.21747)/2.0
 sum -  nocc_ = -0.00000017
 On Iteration in Bisection 24
 a: -0.00000  b:-0.00000

 -0.21747 = (-0.21747 + -0.21747)/2.0
 sum -  nocc_ = -0.00000002
 On Iteration in Bisection 25
 a: -0.00000  b:-0.00000

 -0.21747 = (-0.21747 + -0.21747)/2.0
 sum -  nocc_ = 0.00000006
 On Iteration in Bisection 26
 a: 0.00000  b:-0.00000

 -0.21747 = (-0.21747 + -0.21747)/2.0
 sum -  nocc_ = 0.00000002
 On Iteration in Bisection 27
 a: 0.00000  b:-0.00000

 -0.21747 = (-0.21747 + -0.21747)/2.0
 sum -  nocc_ = 0.00000000
 ef = -0.21747 sum = 1.00000 

 Iter: 9  T:    20000.000  val:-0.217467  sumni 0.00000
 ne = 1.0000

 iter:10  failiter:10  energy:     -0.951489211160  total:     -0.755497652423  error:     -0.000991789326
 In Bisection function HOMO = -0.292  LUMO =  1.502

 0.60501 = (-0.29203 + 1.50204)/2.0
 sum -  nocc_ = 1.73741482
 On Iteration in Bisection 0
 a: 1.73741  b:-0.41315

 0.15649 = (-0.29203 + 0.60501)/2.0
 sum -  nocc_ = 0.99149514
 On Iteration in Bisection 1
 a: 0.99150  b:-0.41315

 -0.06777 = (-0.29203 + 0.15649)/2.0
 sum -  nocc_ = 0.73827882
 On Iteration in Bisection 2
 a: 0.73828  b:-0.41315

 -0.17990 = (-0.29203 + -0.06777)/2.0
 sum -  nocc_ = 0.21292659
 On Iteration in Bisection 3
 a: 0.21293  b:-0.41315

 -0.23596 = (-0.29203 + -0.17990)/2.0
 sum -  nocc_ = -0.10477407
 On Iteration in Bisection 4
 a: -0.10477  b:-0.41315

 -0.20793 = (-0.23596 + -0.17990)/2.0
 sum -  nocc_ = 0.05456020
 On Iteration in Bisection 5
 a: 0.05456  b:-0.10477

 -0.22195 = (-0.23596 + -0.20793)/2.0
 sum -  nocc_ = -0.02515836
 On Iteration in Bisection 6
 a: -0.02516  b:-0.10477

 -0.21494 = (-0.22195 + -0.20793)/2.0
 sum -  nocc_ = 0.01470824
 On Iteration in Bisection 7
 a: 0.01471  b:-0.02516

 -0.21844 = (-0.22195 + -0.21494)/2.0
 sum -  nocc_ = -0.00522571
 On Iteration in Bisection 8
 a: -0.00523  b:-0.02516

 -0.21669 = (-0.21844 + -0.21494)/2.0
 sum -  nocc_ = 0.00474141
 On Iteration in Bisection 9
 a: 0.00474  b:-0.00523

 -0.21757 = (-0.21844 + -0.21669)/2.0
 sum -  nocc_ = -0.00024215
 On Iteration in Bisection 10
 a: -0.00024  b:-0.00523

 -0.21713 = (-0.21757 + -0.21669)/2.0
 sum -  nocc_ = 0.00224963
 On Iteration in Bisection 11
 a: 0.00225  b:-0.00024

 -0.21735 = (-0.21757 + -0.21713)/2.0
 sum -  nocc_ = 0.00100374
 On Iteration in Bisection 12
 a: 0.00100  b:-0.00024

 -0.21746 = (-0.21757 + -0.21735)/2.0
 sum -  nocc_ = 0.00038079
 On Iteration in Bisection 13
 a: 0.00038  b:-0.00024

 -0.21751 = (-0.21757 + -0.21746)/2.0
 sum -  nocc_ = 0.00006932
 On Iteration in Bisection 14
 a: 0.00007  b:-0.00024

 -0.21754 = (-0.21757 + -0.21751)/2.0
 sum -  nocc_ = -0.00008642
 On Iteration in Bisection 15
 a: -0.00009  b:-0.00024

 -0.21753 = (-0.21754 + -0.21751)/2.0
 sum -  nocc_ = -0.00000855
 On Iteration in Bisection 16
 a: -0.00001  b:-0.00009

 -0.21752 = (-0.21753 + -0.21751)/2.0
 sum -  nocc_ = 0.00003039
 On Iteration in Bisection 17
 a: 0.00003  b:-0.00001

 -0.21752 = (-0.21753 + -0.21752)/2.0
 sum -  nocc_ = 0.00001092
 On Iteration in Bisection 18
 a: 0.00001  b:-0.00001

 -0.21752 = (-0.21753 + -0.21752)/2.0
 sum -  nocc_ = 0.00000119
 On Iteration in Bisection 19
 a: 0.00000  b:-0.00001

 -0.21753 = (-0.21753 + -0.21752)/2.0
 sum -  nocc_ = -0.00000368
 On Iteration in Bisection 20
 a: -0.00000  b:-0.00001

 -0.21753 = (-0.21753 + -0.21752)/2.0
 sum -  nocc_ = -0.00000125
 On Iteration in Bisection 21
 a: -0.00000  b:-0.00000

 -0.21752 = (-0.21753 + -0.21752)/2.0
 sum -  nocc_ = -0.00000003
 On Iteration in Bisection 22
 a: -0.00000  b:-0.00000

 -0.21752 = (-0.21752 + -0.21752)/2.0
 sum -  nocc_ = 0.00000058
 On Iteration in Bisection 23
 a: 0.00000  b:-0.00000

 -0.21752 = (-0.21752 + -0.21752)/2.0
 sum -  nocc_ = 0.00000027
 On Iteration in Bisection 24
 a: 0.00000  b:-0.00000

 -0.21752 = (-0.21752 + -0.21752)/2.0
 sum -  nocc_ = 0.00000012
 On Iteration in Bisection 25
 a: 0.00000  b:-0.00000

 -0.21752 = (-0.21752 + -0.21752)/2.0
 sum -  nocc_ = 0.00000005
 On Iteration in Bisection 26
 a: 0.00000  b:-0.00000

 -0.21752 = (-0.21752 + -0.21752)/2.0
 sum -  nocc_ = 0.00000001
 ef = -0.21752 sum = 1.00000 

 Iter: 10  T:    20000.000  val:-0.217525  sumni 0.00000
 ne = 1.0000

 iter:11  failiter:11  energy:     -0.952097422500  total:     -0.756105863763  error:     -0.000608211341
 In Bisection function HOMO = -0.292  LUMO =  1.499

 0.60314 = (-0.29236 + 1.49865)/2.0
 sum -  nocc_ = 1.72380436
 On Iteration in Bisection 0
 a: 1.72380  b:-0.41392

 0.15539 = (-0.29236 + 0.60314)/2.0
 sum -  nocc_ = 0.99126727
 On Iteration in Bisection 1
 a: 0.99127  b:-0.41392

 -0.06849 = (-0.29236 + 0.15539)/2.0
 sum -  nocc_ = 0.73528696
 On Iteration in Bisection 2
 a: 0.73529  b:-0.41392

 -0.18043 = (-0.29236 + -0.06849)/2.0
 sum -  nocc_ = 0.20963575
 On Iteration in Bisection 3
 a: 0.20964  b:-0.41392

 -0.23639 = (-0.29236 + -0.18043)/2.0
 sum -  nocc_ = -0.10678397
 On Iteration in Bisection 4
 a: -0.10678  b:-0.41392

 -0.20841 = (-0.23639 + -0.18043)/2.0
 sum -  nocc_ = 0.05187003
 On Iteration in Bisection 5
 a: 0.05187  b:-0.10678

 -0.22240 = (-0.23639 + -0.20841)/2.0
 sum -  nocc_ = -0.02751121
 On Iteration in Bisection 6
 a: -0.02751  b:-0.10678

 -0.21541 = (-0.22240 + -0.20841)/2.0
 sum -  nocc_ = 0.01218524
 On Iteration in Bisection 7
 a: 0.01219  b:-0.02751

 -0.21890 = (-0.22240 + -0.21541)/2.0
 sum -  nocc_ = -0.00766391
 On Iteration in Bisection 8
 a: -0.00766  b:-0.02751

 -0.21716 = (-0.21890 + -0.21541)/2.0
 sum -  nocc_ = 0.00226073
 On Iteration in Bisection 9
 a: 0.00226  b:-0.00766

 -0.21803 = (-0.21890 + -0.21716)/2.0
 sum -  nocc_ = -0.00270161
 On Iteration in Bisection 10
 a: -0.00270  b:-0.00766

 -0.21759 = (-0.21803 + -0.21716)/2.0
 sum -  nocc_ = -0.00022044
 On Iteration in Bisection 11
 a: -0.00022  b:-0.00270

 -0.21737 = (-0.21759 + -0.21716)/2.0
 sum -  nocc_ = 0.00102015
 On Iteration in Bisection 12
 a: 0.00102  b:-0.00022

 -0.21748 = (-0.21759 + -0.21737)/2.0
 sum -  nocc_ = 0.00039986
 On Iteration in Bisection 13
 a: 0.00040  b:-0.00022

 -0.21754 = (-0.21759 + -0.21748)/2.0
 sum -  nocc_ = 0.00008971
 On Iteration in Bisection 14
 a: 0.00009  b:-0.00022

 -0.21757 = (-0.21759 + -0.21754)/2.0
 sum -  nocc_ = -0.00006536
 On Iteration in Bisection 15
 a: -0.00007  b:-0.00022

 -0.21755 = (-0.21757 + -0.21754)/2.0
 sum -  nocc_ = 0.00001217
 On Iteration in Bisection 16
 a: 0.00001  b:-0.00007

 -0.21756 = (-0.21757 + -0.21755)/2.0
 sum -  nocc_ = -0.00002659
 On Iteration in Bisection 17
 a: -0.00003  b:-0.00007

 -0.21755 = (-0.21756 + -0.21755)/2.0
 sum -  nocc_ = -0.00000721
 On Iteration in Bisection 18
 a: -0.00001  b:-0.00003

 -0.21755 = (-0.21755 + -0.21755)/2.0
 sum -  nocc_ = 0.00000248
 On Iteration in Bisection 19
 a: 0.00000  b:-0.00001

 -0.21755 = (-0.21755 + -0.21755)/2.0
 sum -  nocc_ = -0.00000236
 On Iteration in Bisection 20
 a: -0.00000  b:-0.00001

 -0.21755 = (-0.21755 + -0.21755)/2.0
 sum -  nocc_ = 0.00000006
 On Iteration in Bisection 21
 a: 0.00000  b:-0.00000

 -0.21755 = (-0.21755 + -0.21755)/2.0
 sum -  nocc_ = -0.00000115
 On Iteration in Bisection 22
 a: -0.00000  b:-0.00000

 -0.21755 = (-0.21755 + -0.21755)/2.0
 sum -  nocc_ = -0.00000055
 On Iteration in Bisection 23
 a: -0.00000  b:-0.00000

 -0.21755 = (-0.21755 + -0.21755)/2.0
 sum -  nocc_ = -0.00000024
 On Iteration in Bisection 24
 a: -0.00000  b:-0.00000

 -0.21755 = (-0.21755 + -0.21755)/2.0
 sum -  nocc_ = -0.00000009
 On Iteration in Bisection 25
 a: -0.00000  b:-0.00000

 -0.21755 = (-0.21755 + -0.21755)/2.0
 sum -  nocc_ = -0.00000002
 On Iteration in Bisection 26
 a: -0.00000  b:-0.00000

 -0.21755 = (-0.21755 + -0.21755)/2.0
 sum -  nocc_ = 0.00000002
 On Iteration in Bisection 27
 a: 0.00000  b:-0.00000

 -0.21755 = (-0.21755 + -0.21755)/2.0
 sum -  nocc_ = 0.00000000
 ef = -0.21755 sum = 1.00000 

 Iter: 11  T:    20000.000  val:-0.217554  sumni 0.00000
 ne = 1.0000

 iter:12  failiter:12  energy:     -0.952458076407  total:     -0.756466517670  error:     -0.000360653907
 In Bisection function HOMO = -0.293  LUMO =  1.497

 0.60215 = (-0.29256 + 1.49685)/2.0
 sum -  nocc_ = 1.71659205
 On Iteration in Bisection 0
 a: 1.71659  b:-0.41436

 0.15479 = (-0.29256 + 0.60215)/2.0
 sum -  nocc_ = 0.99114106
 On Iteration in Bisection 1
 a: 0.99114  b:-0.41436

 -0.06888 = (-0.29256 + 0.15479)/2.0
 sum -  nocc_ = 0.73359892
 On Iteration in Bisection 2
 a: 0.73360  b:-0.41436

 -0.18072 = (-0.29256 + -0.06888)/2.0
 sum -  nocc_ = 0.20777639
 On Iteration in Bisection 3
 a: 0.20778  b:-0.41436

 -0.23664 = (-0.29256 + -0.18072)/2.0
 sum -  nocc_ = -0.10792379
 On Iteration in Bisection 4
 a: -0.10792  b:-0.41436

 -0.20868 = (-0.23664 + -0.18072)/2.0
 sum -  nocc_ = 0.05034850
 On Iteration in Bisection 5
 a: 0.05035  b:-0.10792

 -0.22266 = (-0.23664 + -0.20868)/2.0
 sum -  nocc_ = -0.02884332
 On Iteration in Bisection 6
 a: -0.02884  b:-0.10792

 -0.21567 = (-0.22266 + -0.20868)/2.0
 sum -  nocc_ = 0.01075762
 On Iteration in Bisection 7
 a: 0.01076  b:-0.02884

 -0.21916 = (-0.22266 + -0.21567)/2.0
 sum -  nocc_ = -0.00904391
 On Iteration in Bisection 8
 a: -0.00904  b:-0.02884

 -0.21742 = (-0.21916 + -0.21567)/2.0
 sum -  nocc_ = 0.00085688
 On Iteration in Bisection 9
 a: 0.00086  b:-0.00904

 -0.21829 = (-0.21916 + -0.21742)/2.0
 sum -  nocc_ = -0.00409355
 On Iteration in Bisection 10
 a: -0.00409  b:-0.00904

 -0.21785 = (-0.21829 + -0.21742)/2.0
 sum -  nocc_ = -0.00161834
 On Iteration in Bisection 11
 a: -0.00162  b:-0.00409

 -0.21764 = (-0.21785 + -0.21742)/2.0
 sum -  nocc_ = -0.00038073
 On Iteration in Bisection 12
 a: -0.00038  b:-0.00162

 -0.21753 = (-0.21764 + -0.21742)/2.0
 sum -  nocc_ = 0.00023808
 On Iteration in Bisection 13
 a: 0.00024  b:-0.00038

 -0.21758 = (-0.21764 + -0.21753)/2.0
 sum -  nocc_ = -0.00007133
 On Iteration in Bisection 14
 a: -0.00007  b:-0.00038

 -0.21755 = (-0.21758 + -0.21753)/2.0
 sum -  nocc_ = 0.00008337
 On Iteration in Bisection 15
 a: 0.00008  b:-0.00007

 -0.21757 = (-0.21758 + -0.21755)/2.0
 sum -  nocc_ = 0.00000602
 On Iteration in Bisection 16
 a: 0.00001  b:-0.00007

 -0.21757 = (-0.21758 + -0.21757)/2.0
 sum -  nocc_ = -0.00003265
 On Iteration in Bisection 17
 a: -0.00003  b:-0.00007

 -0.21757 = (-0.21757 + -0.21757)/2.0
 sum -  nocc_ = -0.00001331
 On Iteration in Bisection 18
 a: -0.00001  b:-0.00003

 -0.21757 = (-0.21757 + -0.21757)/2.0
 sum -  nocc_ = -0.00000364
 On Iteration in Bisection 19
 a: -0.00000  b:-0.00001

 -0.21757 = (-0.21757 + -0.21757)/2.0
 sum -  nocc_ = 0.00000119
[...]
 On Iteration in Bisection 22
 a: 0.00000  b:-0.00000

 -0.21758 = (-0.21758 + -0.21758)/2.0
 sum -  nocc_ = 0.00000025
 On Iteration in Bisection 23
 a: 0.00000  b:-0.00000

 -0.21758 = (-0.21758 + -0.21758)/2.0
 sum -  nocc_ = -0.00000005
 On Iteration in Bisection 24
 a: -0.00000  b:-0.00000

 -0.21758 = (-0.21758 + -0.21758)/2.0
 sum -  nocc_ = 0.00000010
 On Iteration in Bisection 25
 a: 0.00000  b:-0.00000

 -0.21758 = (-0.21758 + -0.21758)/2.0
 sum -  nocc_ = 0.00000002
 On Iteration in Bisection 26
 a: 0.00000  b:-0.00000

 -0.21758 = (-0.21758 + -0.21758)/2.0
 sum -  nocc_ = -0.00000002
 On Iteration in Bisection 27
 a: -0.00000  b:-0.00000

 -0.21758 = (-0.21758 + -0.21758)/2.0
 sum -  nocc_ = 0.00000000
 ef = -0.21758 sum = 1.00000 

 Iter: 38  T:    20000.000  val:-0.217582  sumni 0.00000
 ne = 1.0000

 iter:39  failiter:39  energy:     -0.952937225925  total:     -0.756945667188  error:     -0.000000000020
 In Bisection function HOMO = -0.293  LUMO =  1.495

 0.60116 = (-0.29281 + 1.49514)/2.0
 sum -  nocc_ = 1.70954788
 On Iteration in Bisection 0
 a: 1.70955  b:-0.41495

 0.15418 = (-0.29281 + 0.60116)/2.0
 sum -  nocc_ = 0.99100332
 On Iteration in Bisection 1
 a: 0.99100  b:-0.41495

 -0.06931 = (-0.29281 + 0.15418)/2.0
 sum -  nocc_ = 0.73163811
 On Iteration in Bisection 2
 a: 0.73164  b:-0.41495

 -0.18106 = (-0.29281 + -0.06931)/2.0
 sum -  nocc_ = 0.20556430
 On Iteration in Bisection 3
 a: 0.20556  b:-0.41495

 -0.23693 = (-0.29281 + -0.18106)/2.0
 sum -  nocc_ = -0.10930114
 On Iteration in Bisection 4
 a: -0.10930  b:-0.41495

 -0.20900 = (-0.23693 + -0.18106)/2.0
 sum -  nocc_ = 0.04852762
 On Iteration in Bisection 5
 a: 0.04853  b:-0.10930

 -0.22297 = (-0.23693 + -0.20900)/2.0
 sum -  nocc_ = -0.03044390
 On Iteration in Bisection 6
 a: -0.03044  b:-0.10930

 -0.21598 = (-0.22297 + -0.20900)/2.0
 sum -  nocc_ = 0.00904596
 On Iteration in Bisection 7
 a: 0.00905  b:-0.03044

 -0.21947 = (-0.22297 + -0.21598)/2.0
 sum -  nocc_ = -0.01070019
 On Iteration in Bisection 8
 a: -0.01070  b:-0.03044

 -0.21773 = (-0.21947 + -0.21598)/2.0
 sum -  nocc_ = -0.00082714
 On Iteration in Bisection 9
 a: -0.00083  b:-0.01070

 -0.21686 = (-0.21773 + -0.21598)/2.0
 sum -  nocc_ = 0.00410944
 On Iteration in Bisection 10
 a: 0.00411  b:-0.00083

 -0.21729 = (-0.21773 + -0.21686)/2.0
 sum -  nocc_ = 0.00164115
 On Iteration in Bisection 11
 a: 0.00164  b:-0.00083

 -0.21751 = (-0.21773 + -0.21729)/2.0
 sum -  nocc_ = 0.00040701
 On Iteration in Bisection 12
 a: 0.00041  b:-0.00083

 -0.21762 = (-0.21773 + -0.21751)/2.0
 sum -  nocc_ = -0.00021006
 On Iteration in Bisection 13
 a: -0.00021  b:-0.00083

 -0.21756 = (-0.21762 + -0.21751)/2.0
 sum -  nocc_ = 0.00009847
 On Iteration in Bisection 14
 a: 0.00010  b:-0.00021

 -0.21759 = (-0.21762 + -0.21756)/2.0
 sum -  nocc_ = -0.00005580
 On Iteration in Bisection 15
 a: -0.00006  b:-0.00021

 -0.21758 = (-0.21759 + -0.21756)/2.0
 sum -  nocc_ = 0.00002134
 On Iteration in Bisection 16
 a: 0.00002  b:-0.00006

 -0.21758 = (-0.21759 + -0.21758)/2.0
 sum -  nocc_ = -0.00001723
 On Iteration in Bisection 17
 a: -0.00002  b:-0.00006

 -0.21758 = (-0.21758 + -0.21758)/2.0
 sum -  nocc_ = 0.00000205
 On Iteration in Bisection 18
 a: 0.00000  b:-0.00002

 -0.21758 = (-0.21758 + -0.21758)/2.0
 sum -  nocc_ = -0.00000759
 On Iteration in Bisection 19
 a: -0.00001  b:-0.00002

 -0.21758 = (-0.21758 + -0.21758)/2.0
 sum -  nocc_ = -0.00000277
 On Iteration in Bisection 20
 a: -0.00000  b:-0.00001

 -0.21758 = (-0.21758 + -0.21758)/2.0
 sum -  nocc_ = -0.00000036
 On Iteration in Bisection 21
 a: -0.00000  b:-0.00000

 -0.21758 = (-0.21758 + -0.21758)/2.0
 sum -  nocc_ = 0.00000085
 On Iteration in Bisection 22
 a: 0.00000  b:-0.00000

 -0.21758 = (-0.21758 + -0.21758)/2.0
 sum -  nocc_ = 0.00000025
 On Iteration in Bisection 23
 a: 0.00000  b:-0.00000

 -0.21758 = (-0.21758 + -0.21758)/2.0
 sum -  nocc_ = -0.00000006
 On Iteration in Bisection 24
 a: -0.00000  b:-0.00000

 -0.21758 = (-0.21758 + -0.21758)/2.0
 sum -  nocc_ = 0.00000010
 On Iteration in Bisection 25
 a: 0.00000  b:-0.00000

 -0.21758 = (-0.21758 + -0.21758)/2.0
 sum -  nocc_ = 0.00000002
 On Iteration in Bisection 26
 a: 0.00000  b:-0.00000

 -0.21758 = (-0.21758 + -0.21758)/2.0
 sum -  nocc_ = -0.00000002
 On Iteration in Bisection 27
 a: -0.00000  b:-0.00000

 -0.21758 = (-0.21758 + -0.21758)/2.0
 sum -  nocc_ = 0.00000000
 ef = -0.21758 sum = 1.00000 

 Iter: 39  T:    20000.000  val:-0.217582  sumni 0.00000
 ne = 1.0000

 iter:40  failiter:40  energy:     -0.952937225935  total:     -0.756945667198  error:     -0.000000000011
 In Bisection function HOMO = -0.293  LUMO =  1.495

 0.60116 = (-0.29281 + 1.49514)/2.0
 sum -  nocc_ = 1.70954788
 On Iteration in Bisection 0
 a: 1.70955  b:-0.41495

 0.15418 = (-0.29281 + 0.60116)/2.0
 sum -  nocc_ = 0.99100332
 On Iteration in Bisection 1
 a: 0.99100  b:-0.41495

 -0.06931 = (-0.29281 + 0.15418)/2.0
 sum -  nocc_ = 0.73163811
 On Iteration in Bisection 2
 a: 0.73164  b:-0.41495

 -0.18106 = (-0.29281 + -0.06931)/2.0
 sum -  nocc_ = 0.20556430
 On Iteration in Bisection 3
 a: 0.20556  b:-0.41495

 -0.23693 = (-0.29281 + -0.18106)/2.0
 sum -  nocc_ = -0.10930114
 On Iteration in Bisection 4
 a: -0.10930  b:-0.41495

 -0.20900 = (-0.23693 + -0.18106)/2.0
 sum -  nocc_ = 0.04852762
 On Iteration in Bisection 5
 a: 0.04853  b:-0.10930

 -0.22297 = (-0.23693 + -0.20900)/2.0
 sum -  nocc_ = -0.03044390
 On Iteration in Bisection 6
 a: -0.03044  b:-0.10930

 -0.21598 = (-0.22297 + -0.20900)/2.0
 sum -  nocc_ = 0.00904596
 On Iteration in Bisection 7
 a: 0.00905  b:-0.03044

 -0.21947 = (-0.22297 + -0.21598)/2.0
 sum -  nocc_ = -0.01070019
 On Iteration in Bisection 8
 a: -0.01070  b:-0.03044

 -0.21773 = (-0.21947 + -0.21598)/2.0
 sum -  nocc_ = -0.00082714
 On Iteration in Bisection 9
 a: -0.00083  b:-0.01070

 -0.21686 = (-0.21773 + -0.21598)/2.0
 sum -  nocc_ = 0.00410944
 On Iteration in Bisection 10
 a: 0.00411  b:-0.00083

 -0.21729 = (-0.21773 + -0.21686)/2.0
 sum -  nocc_ = 0.00164115
 On Iteration in Bisection 11
 a: 0.00164  b:-0.00083

 -0.21751 = (-0.21773 + -0.21729)/2.0
 sum -  nocc_ = 0.00040701
 On Iteration in Bisection 12
 a: 0.00041  b:-0.00083

 -0.21762 = (-0.21773 + -0.21751)/2.0
 sum -  nocc_ = -0.00021006
 On Iteration in Bisection 13
 a: -0.00021  b:-0.00083

 -0.21756 = (-0.21762 + -0.21751)/2.0
 sum -  nocc_ = 0.00009847
 On Iteration in Bisection 14
 a: 0.00010  b:-0.00021

 -0.21759 = (-0.21762 + -0.21756)/2.0
 sum -  nocc_ = -0.00005580
 On Iteration in Bisection 15
 a: -0.00006  b:-0.00021

 -0.21758 = (-0.21759 + -0.21756)/2.0
 sum -  nocc_ = 0.00002134
 On Iteration in Bisection 16
 a: 0.00002  b:-0.00006

 -0.21758 = (-0.21759 + -0.21758)/2.0
 sum -  nocc_ = -0.00001723
 On Iteration in Bisection 17
 a: -0.00002  b:-0.00006

 -0.21758 = (-0.21758 + -0.21758)/2.0
 sum -  nocc_ = 0.00000205
 On Iteration in Bisection 18
 a: 0.00000  b:-0.00002

 -0.21758 = (-0.21758 + -0.21758)/2.0
 sum -  nocc_ = -0.00000759
 On Iteration in Bisection 19
 a: -0.00001  b:-0.00002

 -0.21758 = (-0.21758 + -0.21758)/2.0
 sum -  nocc_ = -0.00000277
 On Iteration in Bisection 20
 a: -0.00000  b:-0.00001

 -0.21758 = (-0.21758 + -0.21758)/2.0
 sum -  nocc_ = -0.00000036
 On Iteration in Bisection 21
 a: -0.00000  b:-0.00000

 -0.21758 = (-0.21758 + -0.21758)/2.0
 sum -  nocc_ = 0.00000085
 On Iteration in Bisection 22
 a: 0.00000  b:-0.00000

 -0.21758 = (-0.21758 + -0.21758)/2.0
 sum -  nocc_ = 0.00000025
 On Iteration in Bisection 23
 a: 0.00000  b:-0.00000

 -0.21758 = (-0.21758 + -0.21758)/2.0
 sum -  nocc_ = -0.00000006
 On Iteration in Bisection 24
 a: -0.00000  b:-0.00000

 -0.21758 = (-0.21758 + -0.21758)/2.0
 sum -  nocc_ = 0.00000010
 On Iteration in Bisection 25
 a: 0.00000  b:-0.00000

 -0.21758 = (-0.21758 + -0.21758)/2.0
 sum -  nocc_ = 0.00000002
 On Iteration in Bisection 26
 a: 0.00000  b:-0.00000

 -0.21758 = (-0.21758 + -0.21758)/2.0
 sum -  nocc_ = -0.00000002
 On Iteration in Bisection 27
 a: -0.00000  b:-0.00000

 -0.21758 = (-0.21758 + -0.21758)/2.0
 sum -  nocc_ = 0.00000000
 ef = -0.21758 sum = 1.00000 

 Iter: 40  T:    20000.000  val:-0.217582  sumni 0.00000
 ne = 1.0000

 iter:41  failiter:41  energy:     -0.952937225941  total:     -0.756945667204  error:     -0.000000000006
 In Bisection function HOMO = -0.293  LUMO =  1.495

 0.60116 = (-0.29281 + 1.49514)/2.0
 sum -  nocc_ = 1.70954788
 On Iteration in Bisection 0
 a: 1.70955  b:-0.41495

 0.15418 = (-0.29281 + 0.60116)/2.0
 sum -  nocc_ = 0.99100332
 On Iteration in Bisection 1
 a: 0.99100  b:-0.41495

 -0.06931 = (-0.29281 + 0.15418)/2.0
 sum -  nocc_ = 0.73163811
 On Iteration in Bisection 2
 a: 0.73164  b:-0.41495

 -0.18106 = (-0.29281 + -0.06931)/2.0
 sum -  nocc_ = 0.20556430
 On Iteration in Bisection 3
 a: 0.20556  b:-0.41495

 -0.23693 = (-0.29281 + -0.18106)/2.0
 sum -  nocc_ = -0.10930114
 On Iteration in Bisection 4
 a: -0.10930  b:-0.41495

 -0.20900 = (-0.23693 + -0.18106)/2.0
 sum -  nocc_ = 0.04852762
 On Iteration in Bisection 5
 a: 0.04853  b:-0.10930

 -0.22297 = (-0.23693 + -0.20900)/2.0
 sum -  nocc_ = -0.03044390
 On Iteration in Bisection 6
 a: -0.03044  b:-0.10930

 -0.21598 = (-0.22297 + -0.20900)/2.0
 sum -  nocc_ = 0.00904596
 On Iteration in Bisection 7
 a: 0.00905  b:-0.03044

 -0.21947 = (-0.22297 + -0.21598)/2.0
 sum -  nocc_ = -0.01070019
 On Iteration in Bisection 8
 a: -0.01070  b:-0.03044

 -0.21773 = (-0.21947 + -0.21598)/2.0
 sum -  nocc_ = -0.00082714
 On Iteration in Bisection 9
 a: -0.00083  b:-0.01070

 -0.21686 = (-0.21773 + -0.21598)/2.0
 sum -  nocc_ = 0.00410944
 On Iteration in Bisection 10
 a: 0.00411  b:-0.00083

 -0.21729 = (-0.21773 + -0.21686)/2.0
 sum -  nocc_ = 0.00164115
 On Iteration in Bisection 11
 a: 0.00164  b:-0.00083

 -0.21751 = (-0.21773 + -0.21729)/2.0
 sum -  nocc_ = 0.00040701
 On Iteration in Bisection 12
 a: 0.00041  b:-0.00083

 -0.21762 = (-0.21773 + -0.21751)/2.0
 sum -  nocc_ = -0.00021006
 On Iteration in Bisection 13
 a: -0.00021  b:-0.00083

 -0.21756 = (-0.21762 + -0.21751)/2.0
 sum -  nocc_ = 0.00009847
 On Iteration in Bisection 14
 a: 0.00010  b:-0.00021

 -0.21759 = (-0.21762 + -0.21756)/2.0
 sum -  nocc_ = -0.00005580
 On Iteration in Bisection 15
 a: -0.00006  b:-0.00021

 -0.21758 = (-0.21759 + -0.21756)/2.0
 sum -  nocc_ = 0.00002134
 On Iteration in Bisection 16
 a: 0.00002  b:-0.00006

 -0.21758 = (-0.21759 + -0.21758)/2.0
 sum -  nocc_ = -0.00001723
 On Iteration in Bisection 17
 a: -0.00002  b:-0.00006

 -0.21758 = (-0.21758 + -0.21758)/2.0
 sum -  nocc_ = 0.00000205
 On Iteration in Bisection 18
 a: 0.00000  b:-0.00002

 -0.21758 = (-0.21758 + -0.21758)/2.0
 sum -  nocc_ = -0.00000759
 On Iteration in Bisection 19
 a: -0.00001  b:-0.00002

 -0.21758 = (-0.21758 + -0.21758)/2.0
 sum -  nocc_ = -0.00000277
 On Iteration in Bisection 20
 a: -0.00000  b:-0.00001

 -0.21758 = (-0.21758 + -0.21758)/2.0
 sum -  nocc_ = -0.00000036
 On Iteration in Bisection 21
 a: -0.00000  b:-0.00000

 -0.21758 = (-0.21758 + -0.21758)/2.0
 sum -  nocc_ = 0.00000085
 On Iteration in Bisection 22
 a: 0.00000  b:-0.00000

 -0.21758 = (-0.21758 + -0.21758)/2.0
 sum -  nocc_ = 0.00000025
 On Iteration in Bisection 23
 a: 0.00000  b:-0.00000

 -0.21758 = (-0.21758 + -0.21758)/2.0
 sum -  nocc_ = -0.00000006
 On Iteration in Bisection 24
 a: -0.00000  b:-0.00000

 -0.21758 = (-0.21758 + -0.21758)/2.0
 sum -  nocc_ = 0.00000010
 On Iteration in Bisection 25
 a: 0.00000  b:-0.00000

 -0.21758 = (-0.21758 + -0.21758)/2.0
 sum -  nocc_ = 0.00000002
 On Iteration in Bisection 26
 a: 0.00000  b:-0.00000

 -0.21758 = (-0.21758 + -0.21758)/2.0
 sum -  nocc_ = -0.00000002
 On Iteration in Bisection 27
 a: -0.00000  b:-0.00000

 -0.21758 = (-0.21758 + -0.21758)/2.0
 sum -  nocc_ = 0.00000000
 ef = -0.21758 sum = 1.00000 

 Iter: 41  T:    20000.000  val:-0.217582  sumni 0.00000
 ne = 1.0000

 iter:42  failiter:42  energy:     -0.952937225944  total:     -0.756945667207  error:     -0.000000000003
 In Bisection function HOMO = -0.293  LUMO =  1.495

 0.60116 = (-0.29281 + 1.49514)/2.0
 sum -  nocc_ = 1.70954788
 On Iteration in Bisection 0
 a: 1.70955  b:-0.41495

 0.15418 = (-0.29281 + 0.60116)/2.0
 sum -  nocc_ = 0.99100332
 On Iteration in Bisection 1
 a: 0.99100  b:-0.41495

 -0.06931 = (-0.29281 + 0.15418)/2.0
 sum -  nocc_ = 0.73163811
 On Iteration in Bisection 2
 a: 0.73164  b:-0.41495

 -0.18106 = (-0.29281 + -0.06931)/2.0
 sum -  nocc_ = 0.20556430
 On Iteration in Bisection 3
 a: 0.20556  b:-0.41495

 -0.23693 = (-0.29281 + -0.18106)/2.0
 sum -  nocc_ = -0.10930114
 On Iteration in Bisection 4
 a: -0.10930  b:-0.41495

 -0.20900 = (-0.23693 + -0.18106)/2.0
 sum -  nocc_ = 0.04852762
 On Iteration in Bisection 5
 a: 0.04853  b:-0.10930

 -0.22297 = (-0.23693 + -0.20900)/2.0
 sum -  nocc_ = -0.03044390
 On Iteration in Bisection 6
 a: -0.03044  b:-0.10930

 -0.21598 = (-0.22297 + -0.20900)/2.0
 sum -  nocc_ = 0.00904596
 On Iteration in Bisection 7
 a: 0.00905  b:-0.03044

 -0.21947 = (-0.22297 + -0.21598)/2.0
 sum -  nocc_ = -0.01070019
 On Iteration in Bisection 8
 a: -0.01070  b:-0.03044

 -0.21773 = (-0.21947 + -0.21598)/2.0
 sum -  nocc_ = -0.00082714
 On Iteration in Bisection 9
 a: -0.00083  b:-0.01070

 -0.21686 = (-0.21773 + -0.21598)/2.0
 sum -  nocc_ = 0.00410944
 On Iteration in Bisection 10
 a: 0.00411  b:-0.00083

 -0.21729 = (-0.21773 + -0.21686)/2.0
 sum -  nocc_ = 0.00164115
 On Iteration in Bisection 11
 a: 0.00164  b:-0.00083

 -0.21751 = (-0.21773 + -0.21729)/2.0
 sum -  nocc_ = 0.00040701
 On Iteration in Bisection 12
 a: 0.00041  b:-0.00083

 -0.21762 = (-0.21773 + -0.21751)/2.0
 sum -  nocc_ = -0.00021006
 On Iteration in Bisection 13
 a: -0.00021  b:-0.00083

 -0.21756 = (-0.21762 + -0.21751)/2.0
 sum -  nocc_ = 0.00009847
 On Iteration in Bisection 14
 a: 0.00010  b:-0.00021

 -0.21759 = (-0.21762 + -0.21756)/2.0
 sum -  nocc_ = -0.00005580
 On Iteration in Bisection 15
 a: -0.00006  b:-0.00021

 -0.21758 = (-0.21759 + -0.21756)/2.0
 sum -  nocc_ = 0.00002134
 On Iteration in Bisection 16
 a: 0.00002  b:-0.00006

 -0.21758 = (-0.21759 + -0.21758)/2.0
 sum -  nocc_ = -0.00001723
 On Iteration in Bisection 17
 a: -0.00002  b:-0.00006

 -0.21758 = (-0.21758 + -0.21758)/2.0
 sum -  nocc_ = 0.00000205
 On Iteration in Bisection 18
 a: 0.00000  b:-0.00002

 -0.21758 = (-0.21758 + -0.21758)/2.0
 sum -  nocc_ = -0.00000759
 On Iteration in Bisection 19
 a: -0.00001  b:-0.00002

 -0.21758 = (-0.21758 + -0.21758)/2.0
 sum -  nocc_ = -0.00000277
 On Iteration in Bisection 20
 a: -0.00000  b:-0.00001

 -0.21758 = (-0.21758 + -0.21758)/2.0
 sum -  nocc_ = -0.00000036
 On Iteration in Bisection 21
 a: -0.00000  b:-0.00000

 -0.21758 = (-0.21758 + -0.21758)/2.0
 sum -  nocc_ = 0.00000085
 On Iteration in Bisection 22
 a: 0.00000  b:-0.00000

 -0.21758 = (-0.21758 + -0.21758)/2.0
 sum -  nocc_ = 0.00000025
 On Iteration in Bisection 23
 a: 0.00000  b:-0.00000

 -0.21758 = (-0.21758 + -0.21758)/2.0
 sum -  nocc_ = -0.00000006
 On Iteration in Bisection 24
 a: -0.00000  b:-0.00000

 -0.21758 = (-0.21758 + -0.21758)/2.0
 sum -  nocc_ = 0.00000010
 On Iteration in Bisection 25
 a: 0.00000  b:-0.00000

 -0.21758 = (-0.21758 + -0.21758)/2.0
 sum -  nocc_ = 0.00000002
 On Iteration in Bisection 26
 a: 0.00000  b:-0.00000

 -0.21758 = (-0.21758 + -0.21758)/2.0
 sum -  nocc_ = -0.00000002
 On Iteration in Bisection 27
 a: -0.00000  b:-0.00000

 -0.21758 = (-0.21758 + -0.21758)/2.0
 sum -  nocc_ = 0.00000000
 ef = -0.21758 sum = 1.00000 

 Iter: 42  T:    20000.000  val:-0.217582  sumni 0.00000
 ne = 1.0000

 iter:43  failiter:43  energy:     -0.952937225945  total:     -0.756945667208  error:     -0.000000000002
 In Bisection function HOMO = -0.293  LUMO =  1.495

 0.60116 = (-0.29281 + 1.49514)/2.0
 sum -  nocc_ = 1.70954788
 On Iteration in Bisection 0
 a: 1.70955  b:-0.41495

 0.15418 = (-0.29281 + 0.60116)/2.0
 sum -  nocc_ = 0.99100332
 On Iteration in Bisection 1
 a: 0.99100  b:-0.41495

 -0.06931 = (-0.29281 + 0.15418)/2.0
 sum -  nocc_ = 0.73163811
 On Iteration in Bisection 2
 a: 0.73164  b:-0.41495

 -0.18106 = (-0.29281 + -0.06931)/2.0
 sum -  nocc_ = 0.20556430
 On Iteration in Bisection 3
 a: 0.20556  b:-0.41495

 -0.23693 = (-0.29281 + -0.18106)/2.0
 sum -  nocc_ = -0.10930114
 On Iteration in Bisection 4
 a: -0.10930  b:-0.41495

 -0.20900 = (-0.23693 + -0.18106)/2.0
 sum -  nocc_ = 0.04852762
 On Iteration in Bisection 5
 a: 0.04853  b:-0.10930

 -0.22297 = (-0.23693 + -0.20900)/2.0
 sum -  nocc_ = -0.03044390
 On Iteration in Bisection 6
 a: -0.03044  b:-0.10930

 -0.21598 = (-0.22297 + -0.20900)/2.0
 sum -  nocc_ = 0.00904596
 On Iteration in Bisection 7
 a: 0.00905  b:-0.03044

 -0.21947 = (-0.22297 + -0.21598)/2.0
 sum -  nocc_ = -0.01070019
 On Iteration in Bisection 8
 a: -0.01070  b:-0.03044

 -0.21773 = (-0.21947 + -0.21598)/2.0
 sum -  nocc_ = -0.00082714
 On Iteration in Bisection 9
 a: -0.00083  b:-0.01070

 -0.21686 = (-0.21773 + -0.21598)/2.0
 sum -  nocc_ = 0.00410944
 On Iteration in Bisection 10
 a: 0.00411  b:-0.00083

 -0.21729 = (-0.21773 + -0.21686)/2.0
 sum -  nocc_ = 0.00164115
 On Iteration in Bisection 11
 a: 0.00164  b:-0.00083

 -0.21751 = (-0.21773 + -0.21729)/2.0
 sum -  nocc_ = 0.00040701
 On Iteration in Bisection 12
 a: 0.00041  b:-0.00083

 -0.21762 = (-0.21773 + -0.21751)/2.0
 sum -  nocc_ = -0.00021006
 On Iteration in Bisection 13
 a: -0.00021  b:-0.00083

 -0.21756 = (-0.21762 + -0.21751)/2.0
 sum -  nocc_ = 0.00009847
 On Iteration in Bisection 14
 a: 0.00010  b:-0.00021

 -0.21759 = (-0.21762 + -0.21756)/2.0
 sum -  nocc_ = -0.00005580
 On Iteration in Bisection 15
 a: -0.00006  b:-0.00021

 -0.21758 = (-0.21759 + -0.21756)/2.0
 sum -  nocc_ = 0.00002134
 On Iteration in Bisection 16
 a: 0.00002  b:-0.00006

 -0.21758 = (-0.21759 + -0.21758)/2.0
 sum -  nocc_ = -0.00001723
 On Iteration in Bisection 17
 a: -0.00002  b:-0.00006

 -0.21758 = (-0.21758 + -0.21758)/2.0
 sum -  nocc_ = 0.00000205
 On Iteration in Bisection 18
 a: 0.00000  b:-0.00002

 -0.21758 = (-0.21758 + -0.21758)/2.0
 sum -  nocc_ = -0.00000759
 On Iteration in Bisection 19
 a: -0.00001  b:-0.00002

 -0.21758 = (-0.21758 + -0.21758)/2.0
 sum -  nocc_ = -0.00000277
 On Iteration in Bisection 20
 a: -0.00000  b:-0.00001

 -0.21758 = (-0.21758 + -0.21758)/2.0
 sum -  nocc_ = -0.00000036
 On Iteration in Bisection 21
 a: -0.00000  b:-0.00000

 -0.21758 = (-0.21758 + -0.21758)/2.0
 sum -  nocc_ = 0.00000085
 On Iteration in Bisection 22
 a: 0.00000  b:-0.00000

 -0.21758 = (-0.21758 + -0.21758)/2.0
 sum -  nocc_ = 0.00000025
 On Iteration in Bisection 23
 a: 0.00000  b:-0.00000

 -0.21758 = (-0.21758 + -0.21758)/2.0
 sum -  nocc_ = -0.00000006
 On Iteration in Bisection 24
 a: -0.00000  b:-0.00000

 -0.21758 = (-0.21758 + -0.21758)/2.0
 sum -  nocc_ = 0.00000010
 On Iteration in Bisection 25
 a: 0.00000  b:-0.00000

 -0.21758 = (-0.21758 + -0.21758)/2.0
 sum -  nocc_ = 0.00000002
 On Iteration in Bisection 26
 a: 0.00000  b:-0.00000

 -0.21758 = (-0.21758 + -0.21758)/2.0
 sum -  nocc_ = -0.00000002
 On Iteration in Bisection 27
 a: -0.00000  b:-0.00000

 -0.21758 = (-0.21758 + -0.21758)/2.0
 sum -  nocc_ = 0.00000000
 ef = -0.21758 sum = 1.00000 

 Iter: 43  T:    20000.000  val:-0.217582  sumni 0.00000
 ne = 1.0000

 iter:44  failiter:44  energy:     -0.952937225946  total:     -0.756945667209  error:     -0.000000000001
 FTHFEnergy =    -0.756946
 FD_dis[0] = 0.76634613 with -0.292808 eig value
 FD_dis[1] = 0.23365094 with -0.142355 eig value
 FD_dis[2] = 0.00000217 with 0.608198 eig value
 FD_dis[3] = 0.00000076 with 0.675112 eig value
 FD_dis[4] = 0.00000000 with 1.465065 eig value
 FD_dis[5] = 0.00000000 with 1.465271 eig value
 FD_dis[6] = 0.00000000 with 1.465271 eig value
 FD_dis[7] = 0.00000000 with 1.468072 eig value
 FD_dis[8] = 0.00000000 with 1.468072 eig value
 FD_dis[9] = 0.00000000 with 1.495136 eig value
*** PSI4 exiting successfully. Buy a developer a beer!
