    -----------------------------------------------------------------------
          PSI4: An Open-Source Ab Initio Electronic Structure Package
                              PSI 4.0 Driver

               Git: Rev {master} 556e8139d3cfa1f96ccffe2cdf22cc56a185d2b2

    J. M. Turney, A. C. Simmonett, R. M. Parrish, E. G. Hohenstein,
    F. A. Evangelista, J. T. Fermann, B. J. Mintz, L. A. Burns, J. J. Wilke,
    M. L. Abrams, N. J. Russ, M. L. Leininger, C. L. Janssen, E. T. Seidl,
    W. D. Allen, H. F. Schaefer, R. A. King, E. F. Valeev, C. D. Sherrill,
    and T. D. Crawford, WIREs Comput. Mol. Sci. 2, 556-565 (2012)
    (doi: 10.1002/wcms.93)

                         Additional Contributions by
    A. E. DePrince, M. Saitow, U. Bozkaya, A. Yu. Sokolov
    -----------------------------------------------------------------------

    Process ID:  14568
    PSI4DATADIR: /Users/kevinhannon/Programs/psi4cmake/psi4/lib
    Memory level set to 256.000 MB

  ==> Input File <==

--------------------------------------------------------------------------

# PYTHONPATH must include directory above plugin directory.
#     Define either externally or here, then import plugin.
sys.path.insert(0, '/Users/kevinhannon/Programs/Quantum_Programs/Quantum-Programs/GS/')
import scf

molecule {
0 1
H
H 1 1.70000
symmetry c1
units angstrom
}


set {
  basis cc-pvdz
  reference rhf
  scf_type  pk
}

set scf {
  DO_FTHF true
  MAX_ITER 130
  MAX_TEMP 20000
  TEMP_INCREMENT 0
  bisect  true
  bisect_iter  40
}
energy('rhf')
energy('scf')


--------------------------------------------------------------------------

*** tstart() called on Kevins-MacBook-Pro.local
*** at Sun Apr 12 15:46:01 2015

/Users/kevinhannon/Programs/Quantum_Programs/Quantum-Programs/GS/scf/scf.so loaded.

*** tstart() called on Kevins-MacBook-Pro.local
*** at Sun Apr 12 15:46:01 2015


         ---------------------------------------------------------
                                   SCF
            by Justin Turney, Rob Parrish, and Andy Simmonett
                              RHF Reference
                        1 Threads,    256 MiB Core
         ---------------------------------------------------------

  ==> Geometry <==

    Molecular point group: c1
    Full point group: D_inf_h

    Geometry (in Angstrom), charge = 0, multiplicity = 1:

       Center              X                  Y                   Z       
    ------------   -----------------  -----------------  -----------------
           H          0.000000000000     0.000000000000    -0.850000000000
           H          0.000000000000     0.000000000000     0.850000000000

  Running in c1 symmetry.

  Rotational constants: A = ************  B =     11.57560  C =     11.57560 [cm^-1]
  Rotational constants: A = ************  B = 347027.75276  C = 347027.75276 [MHz]
  Nuclear repulsion =    0.311280710935294

  Charge       = 0
  Multiplicity = 1
  Electrons    = 2
  Nalpha       = 1
  Nbeta        = 1

  ==> Algorithm <==

  SCF Algorithm Type is PK.
  DIIS enabled.
  MOM disabled.
  Fractional occupation disabled.
  Guess Type is CORE.
  Energy threshold   = 1.00e-06
  Density threshold  = 1.00e-06
  Integral threshold = 0.00e+00

  ==> Primary Basis <==

  Basis Set: CC-PVDZ
    Number of shells: 6
    Number of basis function: 10
    Number of Cartesian functions: 10
    Spherical Harmonics?: true
    Max angular momentum: 1

  ==> Pre-Iterations <==

   -------------------------------------------------------
    Irrep   Nso     Nmo     Nalpha   Nbeta   Ndocc  Nsocc
   -------------------------------------------------------
     A         10      10       0       0       0       0
   -------------------------------------------------------
    Total      10      10       1       1       1       0
   -------------------------------------------------------

  Starting with a DF guess...

 OEINTS: Overlap, kinetic, potential, dipole, and quadrupole integrals
         stored in file 35.

  ==> Integral Setup <==

  ==> DFJK: Density-Fitted J/K Matrices <==

    J tasked:                  Yes
    K tasked:                  Yes
    wK tasked:                  No
    OpenMP threads:              1
    Integrals threads:           1
    Memory (MB):               183
    Algorithm:                Core
    Integral Cache:           NONE
    Schwarz Cutoff:          1E-12
    Fitting Condition:       1E-12

   => Auxiliary Basis Set <=

  Basis Set: 
    Number of shells: 18
    Number of basis function: 46
    Number of Cartesian functions: 50
    Spherical Harmonics?: true
    Max angular momentum: 2

  Minimum eigenvalue in the overlap matrix is 1.9346799773E-01.
  Using Symmetric Orthogonalization.
  SCF Guess: Core (One-Electron) Hamiltonian.

  ==> Iterations <==

                           Total Energy        Delta E     RMS |[F,P]|

   @DF-RHF iter   1:    -0.94047013744158   -9.40470e-01   1.58056e-02 
   @DF-RHF iter   2:    -0.96619726527901   -2.57271e-02   2.71755e-03 DIIS
   @DF-RHF iter   3:    -0.96700484288387   -8.07578e-04   9.54809e-05 DIIS
   @DF-RHF iter   4:    -0.96700561621932   -7.73335e-07   9.09952e-07 DIIS

  DF guess converged.

  ==> Integral Setup <==

 MINTS: Wrapper to libmints.
   by Justin Turney

   Calculation information:
      Number of atoms:                   2
      Number of AO shells:               6
      Number of SO shells:               6
      Number of primitives:             10
      Number of atomic orbitals:        10
      Number of basis functions:        10

      Number of irreps:                  1
      Integral cutoff                 0.00e+00
      Number of functions per irrep: [  10 ]

 OEINTS: Overlap, kinetic, potential, dipole, and quadrupole integrals
         stored in file 35.

      Computing two-electron integrals...done
      Computed 512 non-zero two-electron integrals.
        Stored in file 33.

	Batch   1 pq = [       0,      55] index = [             0,1540]
  ==> DiskJK: Disk-Based J/K Matrices <==

    J tasked:                  Yes
    K tasked:                  Yes
    wK tasked:                  No
    Memory (MB):               183
    Schwarz Cutoff:          1E-12

   @RHF iter   5:    -0.96699945256548    6.16365e-06   1.18099e-06 DIIS
   @RHF iter   6:    -0.96699945270152   -1.36038e-10   2.25116e-07 DIIS

  ==> Post-Iterations <==

    Orbital Energies (a.u.)
    -----------------------

    Doubly Occupied:                                                      

       1A     -0.415036  

    Virtual:                                                              

       2A      0.006059     3A      0.659304     4A      0.670699  
       5A      1.257144     6A      1.421491     7A      1.421491  
       8A      1.555454     9A      1.555454    10A      1.936853  

    Final Occupation by Irrep:
              A 
    DOCC [     1 ]

  Energy converged.

  @RHF Final Energy:    -0.96699945270152

   => Energetics <=

    Nuclear Repulsion Energy =              0.3112807109352941
    One-Electron Energy =                  -1.7264877958937916
    Two-Electron Energy =                   0.4482076322569820
    DFT Exchange-Correlation Energy =       0.0000000000000000
    Empirical Dispersion Energy =           0.0000000000000000
    PCM Polarization Energy =               0.0000000000000000
    EFP Energy =                            0.0000000000000000
    Total Energy =                         -0.9669994527015154

    Alert: EFP and PCM quantities not currently incorporated into SCF psivars.

Properties will be evaluated at   0.000000,   0.000000,   0.000000 Bohr
  ==> Properties <==


Properties computed using the SCF density matrix

  Nuclear Dipole Moment: (a.u.)
     X:     0.0000      Y:     0.0000      Z:     0.0000

  Electronic Dipole Moment: (a.u.)
     X:     0.0000      Y:    -0.0000      Z:     0.0000

  Dipole Moment: (a.u.)
     X:     0.0000      Y:    -0.0000      Z:     0.0000     Total:     0.0000

  Dipole Moment: (Debye)
     X:     0.0000      Y:    -0.0000      Z:     0.0000     Total:     0.0000


  Saving occupied orbitals to File 180.

*** tstop() called on Kevins-MacBook-Pro.local at Sun Apr 12 15:46:01 2015
Module time:
	user time   =       0.20 seconds =       0.00 minutes
	system time =       0.01 seconds =       0.00 minutes
	total time  =          0 seconds =       0.00 minutes
Total time:
	user time   =       0.22 seconds =       0.00 minutes
	system time =       0.01 seconds =       0.00 minutes
	total time  =          0 seconds =       0.00 minutes

*** tstart() called on Kevins-MacBook-Pro.local
*** at Sun Apr 12 15:46:01 2015


         ---------------------------------------------------------
                                   SCF
            by Justin Turney, Rob Parrish, and Andy Simmonett
                              RHF Reference
                        1 Threads,    256 MiB Core
         ---------------------------------------------------------

  ==> Geometry <==

    Molecular point group: c1
    Full point group: D_inf_h

    Geometry (in Angstrom), charge = 0, multiplicity = 1:

       Center              X                  Y                   Z       
    ------------   -----------------  -----------------  -----------------
           H          0.000000000000     0.000000000000    -0.850000000000
           H          0.000000000000     0.000000000000     0.850000000000

  Running in c1 symmetry.

  Rotational constants: A = ************  B =     11.57560  C =     11.57560 [cm^-1]
  Rotational constants: A = ************  B = 347027.75276  C = 347027.75276 [MHz]
  Nuclear repulsion =    0.311280710935294

  Charge       = 0
  Multiplicity = 1
  Electrons    = 2
  Nalpha       = 1
  Nbeta        = 1

  ==> Algorithm <==

  SCF Algorithm Type is PK.
  DIIS enabled.
  MOM disabled.
  Fractional occupation disabled.
  Guess Type is CORE.
  Energy threshold   = 1.00e-08
  Density threshold  = 1.00e-08
  Integral threshold = 0.00e+00

  ==> Primary Basis <==

  Basis Set: CC-PVDZ
    Number of shells: 6
    Number of basis function: 10
    Number of Cartesian functions: 10
    Spherical Harmonics?: true
    Max angular momentum: 1

  ==> Pre-Iterations <==

   -------------------------------------------------------
    Irrep   Nso     Nmo     Nalpha   Nbeta   Ndocc  Nsocc
   -------------------------------------------------------
     A         10      10       0       0       0       0
   -------------------------------------------------------
    Total      10      10       1       1       1       0
   -------------------------------------------------------

  Starting with a DF guess...

 OEINTS: Overlap, kinetic, potential, dipole, and quadrupole integrals
         stored in file 35.

  ==> Integral Setup <==

  ==> DFJK: Density-Fitted J/K Matrices <==

    J tasked:                  Yes
    K tasked:                  Yes
    wK tasked:                  No
    OpenMP threads:              1
    Integrals threads:           1
    Memory (MB):               183
    Algorithm:                Core
    Integral Cache:           NONE
    Schwarz Cutoff:          1E-12
    Fitting Condition:       1E-12

   => Auxiliary Basis Set <=

  Basis Set: 
    Number of shells: 18
    Number of basis function: 46
    Number of Cartesian functions: 50
    Spherical Harmonics?: true
    Max angular momentum: 2

  Minimum eigenvalue in the overlap matrix is 1.9346799773E-01.
  Using Symmetric Orthogonalization.
  SCF Guess: Core (One-Electron) Hamiltonian.

  ==> Iterations <==

                           Total Energy        Delta E     RMS |[F,P]|

   @DF-RHF iter   1:    -0.94047013744158   -9.40470e-01   1.58056e-02 
   @DF-RHF iter   2:    -0.96619726527901   -2.57271e-02   2.71755e-03 DIIS
   @DF-RHF iter   3:    -0.96700484288387   -8.07578e-04   9.54809e-05 DIIS
   @DF-RHF iter   4:    -0.96700561621932   -7.73335e-07   9.09952e-07 DIIS
   @DF-RHF iter   5:    -0.96700561630910   -8.97775e-11   1.00719e-11 DIIS

  DF guess converged.

  ==> Integral Setup <==

 MINTS: Wrapper to libmints.
   by Justin Turney

   Calculation information:
      Number of atoms:                   2
      Number of AO shells:               6
      Number of SO shells:               6
      Number of primitives:             10
      Number of atomic orbitals:        10
      Number of basis functions:        10

      Number of irreps:                  1
      Integral cutoff                 0.00e+00
      Number of functions per irrep: [  10 ]

 OEINTS: Overlap, kinetic, potential, dipole, and quadrupole integrals
         stored in file 35.

      Computing two-electron integrals...done
      Computed 512 non-zero two-electron integrals.
        Stored in file 33.

	Batch   1 pq = [       0,      55] index = [             0,1540]
  ==> DiskJK: Disk-Based J/K Matrices <==

    J tasked:                  Yes
    K tasked:                  Yes
    wK tasked:                  No
    Memory (MB):               183
    Schwarz Cutoff:          1E-12

   @RHF iter   6:    -0.96699945256548    6.16374e-06   1.18098e-06 DIIS
   @RHF iter   7:    -0.96699945270152   -1.36037e-10   2.25114e-07 DIIS
   @RHF iter   8:    -0.96699945270673   -5.21139e-12   1.66891e-09 DIIS

  ==> Post-Iterations <==

    Orbital Energies (a.u.)
    -----------------------

    Doubly Occupied:                                                      

       1A     -0.415036  

    Virtual:                                                              

       2A      0.006059     3A      0.659304     4A      0.670699  
       5A      1.257144     6A      1.421491     7A      1.421491  
       8A      1.555454     9A      1.555454    10A      1.936853  

    Final Occupation by Irrep:
              A 
    DOCC [     1 ]

  Energy converged.

  @RHF Final Energy:    -0.96699945270673

   => Energetics <=

    Nuclear Repulsion Energy =              0.3112807109352941
    One-Electron Energy =                  -1.7264882686242853
    Two-Electron Energy =                   0.4482081049822642
    DFT Exchange-Correlation Energy =       0.0000000000000000
    Empirical Dispersion Energy =           0.0000000000000000
    PCM Polarization Energy =               0.0000000000000000
    EFP Energy =                            0.0000000000000000
    Total Energy =                         -0.9669994527067269

    Alert: EFP and PCM quantities not currently incorporated into SCF psivars.

Properties will be evaluated at   0.000000,   0.000000,   0.000000 Bohr
  ==> Properties <==


Properties computed using the SCF density matrix

  Nuclear Dipole Moment: (a.u.)
     X:     0.0000      Y:     0.0000      Z:     0.0000

  Electronic Dipole Moment: (a.u.)
     X:    -0.0000      Y:     0.0000      Z:    -0.0000

  Dipole Moment: (a.u.)
     X:    -0.0000      Y:     0.0000      Z:    -0.0000     Total:     0.0000

  Dipole Moment: (Debye)
     X:    -0.0000      Y:     0.0000      Z:    -0.0000     Total:     0.0000


  Saving occupied orbitals to File 180.

*** tstop() called on Kevins-MacBook-Pro.local at Sun Apr 12 15:46:01 2015
Module time:
	user time   =       0.20 seconds =       0.00 minutes
	system time =       0.01 seconds =       0.00 minutes
	total time  =          0 seconds =       0.00 minutes
Total time:
	user time   =       0.42 seconds =       0.01 minutes
	system time =       0.02 seconds =       0.00 minutes
	total time  =          0 seconds =       0.00 minutes
Reading options from the SCF block
Calling plugin scf.so.
    Molecular point group: c1
    Full point group: D_inf_h

    Geometry (in Angstrom), charge = 0, multiplicity = 1:

       Center              X                  Y                   Z       
    ------------   -----------------  -----------------  -----------------
           H          0.000000000000     0.000000000000    -0.850000000000
           H          0.000000000000     0.000000000000     0.850000000000


    Nuclear repulsion energy:       0.31128071

  ## Overlap (Symmetry 0) ##
  Irrep: 1 Size: 10 x 10

                 1                   2                   3                   4                   5

    1     1.00000000000000     0.68486025149275     0.00000000000000     0.00000000000000     0.00000000000000
    2     0.68486025149275     1.00000000000000     0.00000000000000     0.00000000000000     0.00000000000000
    3     0.00000000000000     0.00000000000000     1.00000000000000     0.00000000000000     0.00000000000000
    4     0.00000000000000     0.00000000000000     0.00000000000000     1.00000000000000     0.00000000000000
    5     0.00000000000000     0.00000000000000     0.00000000000000     0.00000000000000     1.00000000000000
    6     0.07310628213292     0.24971458296946     0.09715051691482     0.00000000000000     0.00000000000000
    7     0.24971458296946     0.53283523845835     0.15738505879309     0.00000000000000     0.00000000000000
    8    -0.09715051691482    -0.15738505879309    -0.15271119536459     0.00000000000000     0.00000000000000
    9     0.00000000000000     0.00000000000000     0.00000000000000     0.02348350078718     0.00000000000000
   10     0.00000000000000     0.00000000000000     0.00000000000000     0.00000000000000     0.02348350078718

                 6                   7                   8                   9                  10

    1     0.07310628213292     0.24971458296946    -0.09715051691482     0.00000000000000     0.00000000000000
    2     0.24971458296946     0.53283523845835    -0.15738505879309     0.00000000000000     0.00000000000000
    3     0.09715051691482     0.15738505879309    -0.15271119536459     0.00000000000000     0.00000000000000
    4     0.00000000000000     0.00000000000000     0.00000000000000     0.02348350078718     0.00000000000000
    5     0.00000000000000     0.00000000000000     0.00000000000000     0.00000000000000     0.02348350078718
    6     1.00000000000000     0.68486025149275    -0.00000000000000     0.00000000000000     0.00000000000000
    7     0.68486025149275     1.00000000000000     0.00000000000000     0.00000000000000     0.00000000000000
    8    -0.00000000000000     0.00000000000000     1.00000000000000     0.00000000000000     0.00000000000000
    9     0.00000000000000     0.00000000000000     0.00000000000000     1.00000000000000     0.00000000000000
   10     0.00000000000000     0.00000000000000     0.00000000000000     0.00000000000000     1.00000000000000



  ## Kinetic (Symmetry 0) ##
  Irrep: 1 Size: 10 x 10

                 1                   2                   3                   4                   5

    1     0.96945722711242     0.20123413106538    -0.00000000000000     0.00000000000000     0.00000000000000
    2     0.20123413106538     0.18300000000000     0.00000000000000     0.00000000000000     0.00000000000000
    3    -0.00000000000000     0.00000000000000     1.81750000000000     0.00000000000000     0.00000000000000
    4     0.00000000000000     0.00000000000000     0.00000000000000     1.81750000000000     0.00000000000000
    5     0.00000000000000     0.00000000000000     0.00000000000000     0.00000000000000     1.81750000000000
    6    -0.03403521389444     0.02385548872617    -0.02863938859543     0.00000000000000     0.00000000000000
    7     0.02385548872617     0.05658483836552     0.04675538064394     0.00000000000000     0.00000000000000
    8     0.02863938859543    -0.04675538064394     0.01084453438543     0.00000000000000     0.00000000000000
    9     0.00000000000000     0.00000000000000     0.00000000000000    -0.02136550937047     0.00000000000000
   10     0.00000000000000     0.00000000000000     0.00000000000000     0.00000000000000    -0.02136550937047

                 6                   7                   8                   9                  10

    1    -0.03403521389444     0.02385548872617     0.02863938859543     0.00000000000000     0.00000000000000
    2     0.02385548872617     0.05658483836552    -0.04675538064394     0.00000000000000     0.00000000000000
    3    -0.02863938859543     0.04675538064394     0.01084453438543     0.00000000000000     0.00000000000000
    4     0.00000000000000     0.00000000000000     0.00000000000000    -0.02136550937047     0.00000000000000
    5     0.00000000000000     0.00000000000000     0.00000000000000     0.00000000000000    -0.02136550937047
    6     0.96945722711242     0.20123413106538     0.00000000000000     0.00000000000000     0.00000000000000
    7     0.20123413106538     0.18300000000000     0.00000000000000     0.00000000000000     0.00000000000000
    8     0.00000000000000     0.00000000000000     1.81750000000000     0.00000000000000     0.00000000000000
    9     0.00000000000000     0.00000000000000     0.00000000000000     1.81750000000000     0.00000000000000
   10     0.00000000000000     0.00000000000000     0.00000000000000     0.00000000000000     1.81750000000000



  ## Potential (Symmetry 0) ##
  Irrep: 1 Size: 10 x 10

                 1                   2                   3                   4                   5

    1    -1.68913871471642    -0.86277268200583    -0.06095822800768     0.00000000000000     0.00000000000000
    2    -0.86277268200583    -0.86093266113197    -0.05715162301594     0.00000000000000     0.00000000000000
    3    -0.06095822800768    -0.05715162301594    -1.23910510266383     0.00000000000000     0.00000000000000
    4     0.00000000000000     0.00000000000000     0.00000000000000    -1.20798957931166     0.00000000000000
    5     0.00000000000000     0.00000000000000     0.00000000000000     0.00000000000000    -1.20798957931166
    6    -0.09184642793489    -0.31260747140433    -0.11764587071470     0.00000000000000     0.00000000000000
    7    -0.31260747140433    -0.48973931164328    -0.18888302935580     0.00000000000000     0.00000000000000
    8     0.11764587071470     0.18888302935580     0.18312740054859     0.00000000000000     0.00000000000000
    9     0.00000000000000     0.00000000000000     0.00000000000000    -0.02538661790008     0.00000000000000
   10     0.00000000000000     0.00000000000000     0.00000000000000     0.00000000000000    -0.02538661790008

                 6                   7                   8                   9                  10

    1    -0.09184642793489    -0.31260747140433     0.11764587071470     0.00000000000000     0.00000000000000
    2    -0.31260747140433    -0.48973931164328     0.18888302935580     0.00000000000000     0.00000000000000
    3    -0.11764587071470    -0.18888302935580     0.18312740054859     0.00000000000000     0.00000000000000
    4     0.00000000000000     0.00000000000000     0.00000000000000    -0.02538661790008     0.00000000000000
    5     0.00000000000000     0.00000000000000     0.00000000000000     0.00000000000000    -0.02538661790008
    6    -1.68913871471642    -0.86277268200583     0.06095822800768     0.00000000000000     0.00000000000000
    7    -0.86277268200583    -0.86093266113197     0.05715162301594     0.00000000000000     0.00000000000000
    8     0.06095822800768     0.05715162301594    -1.23910510266383     0.00000000000000     0.00000000000000
    9     0.00000000000000     0.00000000000000     0.00000000000000    -1.20798957931166     0.00000000000000
   10     0.00000000000000     0.00000000000000     0.00000000000000     0.00000000000000    -1.20798957931166



  ## One Electron Ints (Symmetry 0) ##
  Irrep: 1 Size: 10 x 10

                 1                   2                   3                   4                   5

    1    -0.71968148760400    -0.66153855094044    -0.06095822800768     0.00000000000000     0.00000000000000
    2    -0.66153855094044    -0.67793266113197    -0.05715162301594     0.00000000000000     0.00000000000000
    3    -0.06095822800768    -0.05715162301594     0.57839489733617     0.00000000000000     0.00000000000000
    4     0.00000000000000     0.00000000000000     0.00000000000000     0.60951042068834     0.00000000000000
    5     0.00000000000000     0.00000000000000     0.00000000000000     0.00000000000000     0.60951042068834
    6    -0.12588164182932    -0.28875198267816    -0.14628525931013     0.00000000000000     0.00000000000000
    7    -0.28875198267816    -0.43315447327776    -0.14212764871187     0.00000000000000     0.00000000000000
    8     0.14628525931013     0.14212764871187     0.19397193493402     0.00000000000000     0.00000000000000
    9     0.00000000000000     0.00000000000000     0.00000000000000    -0.04675212727054     0.00000000000000
   10     0.00000000000000     0.00000000000000     0.00000000000000     0.00000000000000    -0.04675212727054

                 6                   7                   8                   9                  10

    1    -0.12588164182932    -0.28875198267816     0.14628525931013     0.00000000000000     0.00000000000000
    2    -0.28875198267816    -0.43315447327776     0.14212764871187     0.00000000000000     0.00000000000000
    3    -0.14628525931013    -0.14212764871187     0.19397193493402     0.00000000000000     0.00000000000000
    4     0.00000000000000     0.00000000000000     0.00000000000000    -0.04675212727054     0.00000000000000
    5     0.00000000000000     0.00000000000000     0.00000000000000     0.00000000000000    -0.04675212727054
    6    -0.71968148760400    -0.66153855094044     0.06095822800768     0.00000000000000     0.00000000000000
    7    -0.66153855094044    -0.67793266113197     0.05715162301594     0.00000000000000     0.00000000000000
    8     0.06095822800768     0.05715162301594     0.57839489733617     0.00000000000000     0.00000000000000
    9     0.00000000000000     0.00000000000000     0.00000000000000     0.60951042068834     0.00000000000000
   10     0.00000000000000     0.00000000000000     0.00000000000000     0.00000000000000     0.60951042068834




	There are 0 unique integrals

  ## Fock (Symmetry 0) ##
  Irrep: 1 Size: 10 x 10

                 1                   2                   3                   4                   5

    1    -0.47967775228011    -0.35723775014853    -0.06015432833956     0.00000000000000     0.00000000000000
    2    -0.35723775014853    -0.32424286930289     0.08012029834844     0.00000000000000     0.00000000000000
    3    -0.06015432833956     0.08012029834844     0.66760714645353     0.00000000000000     0.00000000000000
    4     0.00000000000000     0.00000000000000     0.00000000000000     0.61094524521846     0.00000000000000
    5     0.00000000000000     0.00000000000000     0.00000000000000     0.00000000000000     0.61094524521846
    6     0.00613086647269    -0.04348845565296    -0.06466168096212     0.00000000000000     0.00000000000000
    7    -0.04348845565296    -0.11707466717046    -0.15811162197100     0.00000000000000     0.00000000000000
    8     0.06466168096212     0.15811162197100     0.31172929763457     0.00000000000000     0.00000000000000
    9     0.00000000000000     0.00000000000000     0.00000000000000    -0.06109926041755    -0.00000000000000
   10     0.00000000000000     0.00000000000000     0.00000000000000     0.00000000000000    -0.06109926041755

                 6                   7                   8                   9                  10

    1     0.00613086647269    -0.04348845565296     0.06466168096212     0.00000000000000     0.00000000000000
    2    -0.04348845565296    -0.11707466717046     0.15811162197100     0.00000000000000     0.00000000000000
    3    -0.06466168096212    -0.15811162197100     0.31172929763457     0.00000000000000     0.00000000000000
    4     0.00000000000000     0.00000000000000     0.00000000000000    -0.06109926041755     0.00000000000000
    5     0.00000000000000     0.00000000000000     0.00000000000000    -0.00000000000000    -0.06109926041755
    6    -0.47967775228011    -0.35723775014853     0.06015432833956     0.00000000000000     0.00000000000000
    7    -0.35723775014853    -0.32424286930289    -0.08012029834844     0.00000000000000     0.00000000000000
    8     0.06015432833956    -0.08012029834844     0.66760714645353     0.00000000000000     0.00000000000000
    9     0.00000000000000     0.00000000000000     0.00000000000000     0.61094524521846     0.00000000000000
   10     0.00000000000000     0.00000000000000     0.00000000000000     0.00000000000000     0.61094524521846



  ## C (Symmetry 0) ##
  Irrep: 1 Size: 10 x 10

                 1                   2                   3                   4                   5

    1     0.34409098119233     0.40316753867149     0.13793072466516     0.01332324950953    -0.02863573268223
    2     0.56015933117833     0.36328707397300    -0.13422557784803     0.15832709098357     0.24215657938735
    3    -0.46136101994021     0.54814596047110    -0.05412024104311     0.06812583862375     0.04295927409977
    4    -0.40112304401989     0.56761638257395    -0.13083903638129     0.00462469326458     0.00689884857437
    5    -0.09273348633329    -0.02292947561332     0.69264835704591     0.00000000000000     0.00000000000000
    6     0.03407382711257     0.02513222625663     0.00022378733533     0.98081623309488     0.16052302676418
    7    -0.17520983229682    -0.20962961044311     0.03282491044241    -0.65407845585887    -0.91253677991423
    8     0.02399476361454     0.09045253007548    -0.01055308018285     0.61861873355935    -0.36037598250005
    9     0.00471053618507    -0.00666572900564     0.00153649117018    -0.39381313868829    -0.58746754756989
   10    -0.02597861172451     0.14077304981031     0.68439394140933     0.00000000000000    -0.00000000000000

                 6                   7                   8                   9                  10

    1     0.97606342009805     0.83525619900089    -0.07496705318766     0.01097832240059    -0.02706379375797
    2    -1.17490289598725    -0.82299996509828    -0.03863937849946     0.02684181422430     0.33029868995339
    3    -0.53644124739186     0.49681252739768     0.04663996740347    -0.03448643052055     0.11174615423775
    4     0.40112304401989    -0.56761638257395    -0.13083903638129    -0.00462469326458    -0.00689884857437
    5    -0.09336930404221    -0.01962904479557    -0.70891582427447     0.00000000000000    -0.00000000000000
    6    -0.00592837599153    -0.00221785625551    -0.00420922312267     0.96948910863379     0.16811624694253
    7     0.31816753155363     0.12769960054610     0.01633047726042    -0.57827614743909    -0.96335140809599
    8    -0.10623800490433     0.00141051017704    -0.00242206358580    -0.58436983305557     0.44605614329901
    9    -0.00471053618507     0.00666572900564     0.00153649117018     0.39381313868829     0.58746754756989
   10     0.02816408558665    -0.14027326937296     0.70085302769280     0.00000000000000     0.00000000000000




 In Bisection function HOMO = -0.875  LUMO =  1.027

 0.07607 = (-0.87535 + 1.02749)/2.0
 sum -  nocc_ = 2.76614423
 On Iteration in Bisection 0
 a: 2.76614  b:-0.44028

 -0.39964 = (-0.87535 + 0.07607)/2.0
 sum -  nocc_ = 0.99890274
 On Iteration in Bisection 1
 a: 0.99890  b:-0.44028

 -0.63749 = (-0.87535 + -0.39964)/2.0
 sum -  nocc_ = 0.70822831
 On Iteration in Bisection 2
 a: 0.70823  b:-0.44028

 -0.75642 = (-0.87535 + -0.63749)/2.0
 sum -  nocc_ = 0.16084175
 On Iteration in Bisection 3
 a: 0.16084  b:-0.44028

 -0.81589 = (-0.87535 + -0.75642)/2.0
 sum -  nocc_ = -0.14138564
 On Iteration in Bisection 4
 a: -0.14139  b:-0.44028

 -0.78615 = (-0.81589 + -0.75642)/2.0
 sum -  nocc_ = 0.00970209
 On Iteration in Bisection 5
 a: 0.00970  b:-0.14139

 -0.80102 = (-0.81589 + -0.78615)/2.0
 sum -  nocc_ = -0.06579287
 On Iteration in Bisection 6
 a: -0.06579  b:-0.14139

 -0.79359 = (-0.80102 + -0.78615)/2.0
 sum -  nocc_ = -0.02803900
 On Iteration in Bisection 7
 a: -0.02804  b:-0.06579

 -0.78987 = (-0.79359 + -0.78615)/2.0
 sum -  nocc_ = -0.00916793
 On Iteration in Bisection 8
 a: -0.00917  b:-0.02804

 -0.78801 = (-0.78987 + -0.78615)/2.0
 sum -  nocc_ = 0.00026707
 On Iteration in Bisection 9
 a: 0.00027  b:-0.00917

 -0.78894 = (-0.78987 + -0.78801)/2.0
 sum -  nocc_ = -0.00445042
 On Iteration in Bisection 10
 a: -0.00445  b:-0.00917

 -0.78848 = (-0.78894 + -0.78801)/2.0
 sum -  nocc_ = -0.00209167
 On Iteration in Bisection 11
 a: -0.00209  b:-0.00445

 -0.78824 = (-0.78848 + -0.78801)/2.0
 sum -  nocc_ = -0.00091230
 On Iteration in Bisection 12
 a: -0.00091  b:-0.00209

 -0.78813 = (-0.78824 + -0.78801)/2.0
 sum -  nocc_ = -0.00032262
 On Iteration in Bisection 13
 a: -0.00032  b:-0.00091

 -0.78807 = (-0.78813 + -0.78801)/2.0
 sum -  nocc_ = -0.00002778
 On Iteration in Bisection 14
 a: -0.00003  b:-0.00032

 -0.78804 = (-0.78807 + -0.78801)/2.0
 sum -  nocc_ = 0.00011964
 On Iteration in Bisection 15
 a: 0.00012  b:-0.00003

 -0.78806 = (-0.78807 + -0.78804)/2.0
 sum -  nocc_ = 0.00004593
 On Iteration in Bisection 16
 a: 0.00005  b:-0.00003

 -0.78806 = (-0.78807 + -0.78806)/2.0
 sum -  nocc_ = 0.00000908
 On Iteration in Bisection 17
 a: 0.00001  b:-0.00003

 -0.78807 = (-0.78807 + -0.78806)/2.0
 sum -  nocc_ = -0.00000935
 On Iteration in Bisection 18
 a: -0.00001  b:-0.00003

 -0.78806 = (-0.78807 + -0.78806)/2.0
 sum -  nocc_ = -0.00000014
 On Iteration in Bisection 19
 a: -0.00000  b:-0.00001

 -0.78806 = (-0.78806 + -0.78806)/2.0
 sum -  nocc_ = 0.00000447
 On Iteration in Bisection 20
 a: 0.00000  b:-0.00000

 -0.78806 = (-0.78806 + -0.78806)/2.0
 sum -  nocc_ = 0.00000217
 On Iteration in Bisection 21
 a: 0.00000  b:-0.00000

 -0.78806 = (-0.78806 + -0.78806)/2.0
 sum -  nocc_ = 0.00000102
 On Iteration in Bisection 22
 a: 0.00000  b:-0.00000

 -0.78806 = (-0.78806 + -0.78806)/2.0
 sum -  nocc_ = 0.00000044
 On Iteration in Bisection 23
 a: 0.00000  b:-0.00000

 -0.78806 = (-0.78806 + -0.78806)/2.0
 sum -  nocc_ = 0.00000015
 On Iteration in Bisection 24
 a: 0.00000  b:-0.00000

 -0.78806 = (-0.78806 + -0.78806)/2.0
 sum -  nocc_ = 0.00000001
 ef = -0.78806 sum = 1.00000 

 Iter: 0  T:    20000.000  val:-0.788064  sumni 0.00000
 ne = 1.0000

Nuc Replusion =       0.311280710935
 1st iteration =      -0.286743998261
 In Bisection function HOMO = -0.272  LUMO =  2.000

 0.86393 = (-0.27168 + 1.99954)/2.0
 sum -  nocc_ = 2.24432697
 On Iteration in Bisection 0
 a: 2.24433  b:-0.49300

 0.29612 = (-0.27168 + 0.86393)/2.0
 sum -  nocc_ = 1.10219685
 On Iteration in Bisection 1
 a: 1.10220  b:-0.49300

 0.01222 = (-0.27168 + 0.29612)/2.0
 sum -  nocc_ = 0.37403538
 On Iteration in Bisection 2
 a: 0.37404  b:-0.49300

 -0.12973 = (-0.27168 + 0.01222)/2.0
 sum -  nocc_ = -0.03386009
 On Iteration in Bisection 3
 a: -0.03386  b:-0.49300

 -0.05875 = (-0.12973 + 0.01222)/2.0
 sum -  nocc_ = 0.13572682
 On Iteration in Bisection 4
 a: 0.13573  b:-0.03386

 -0.09424 = (-0.12973 + -0.05875)/2.0
 sum -  nocc_ = 0.04691824
 On Iteration in Bisection 5
 a: 0.04692  b:-0.03386

 -0.11198 = (-0.12973 + -0.09424)/2.0
 sum -  nocc_ = 0.00638309
 On Iteration in Bisection 6
 a: 0.00638  b:-0.03386

 -0.12086 = (-0.12973 + -0.11198)/2.0
 sum -  nocc_ = -0.01366297
 On Iteration in Bisection 7
 a: -0.01366  b:-0.03386

 -0.11642 = (-0.12086 + -0.11198)/2.0
 sum -  nocc_ = -0.00363506
 On Iteration in Bisection 8
 a: -0.00364  b:-0.01366

 -0.11420 = (-0.11642 + -0.11198)/2.0
 sum -  nocc_ = 0.00137348
 On Iteration in Bisection 9
 a: 0.00137  b:-0.00364

 -0.11531 = (-0.11642 + -0.11420)/2.0
 sum -  nocc_ = -0.00113070
 On Iteration in Bisection 10
 a: -0.00113  b:-0.00364

 -0.11476 = (-0.11531 + -0.11420)/2.0
 sum -  nocc_ = 0.00012138
 On Iteration in Bisection 11
 a: 0.00012  b:-0.00113

 -0.11503 = (-0.11531 + -0.11476)/2.0
 sum -  nocc_ = -0.00050466
 On Iteration in Bisection 12
 a: -0.00050  b:-0.00113

 -0.11490 = (-0.11503 + -0.11476)/2.0
 sum -  nocc_ = -0.00019164
 On Iteration in Bisection 13
 a: -0.00019  b:-0.00050

 -0.11483 = (-0.11490 + -0.11476)/2.0
 sum -  nocc_ = -0.00003513
 On Iteration in Bisection 14
 a: -0.00004  b:-0.00019

 -0.11479 = (-0.11483 + -0.11476)/2.0
 sum -  nocc_ = 0.00004313
 On Iteration in Bisection 15
 a: 0.00004  b:-0.00004

 -0.11481 = (-0.11483 + -0.11479)/2.0
 sum -  nocc_ = 0.00000400
 On Iteration in Bisection 16
 a: 0.00000  b:-0.00004

 -0.11482 = (-0.11483 + -0.11481)/2.0
 sum -  nocc_ = -0.00001557
 On Iteration in Bisection 17
 a: -0.00002  b:-0.00004

 -0.11481 = (-0.11482 + -0.11481)/2.0
 sum -  nocc_ = -0.00000578
 On Iteration in Bisection 18
 a: -0.00001  b:-0.00002

 -0.11481 = (-0.11481 + -0.11481)/2.0
 sum -  nocc_ = -0.00000089
 On Iteration in Bisection 19
 a: -0.00000  b:-0.00001

 -0.11481 = (-0.11481 + -0.11481)/2.0
 sum -  nocc_ = 0.00000155
 On Iteration in Bisection 20
 a: 0.00000  b:-0.00000

 -0.11481 = (-0.11481 + -0.11481)/2.0
 sum -  nocc_ = 0.00000033
 On Iteration in Bisection 21
 a: 0.00000  b:-0.00000

 -0.11481 = (-0.11481 + -0.11481)/2.0
 sum -  nocc_ = -0.00000028
 On Iteration in Bisection 22
 a: -0.00000  b:-0.00000

 -0.11481 = (-0.11481 + -0.11481)/2.0
 sum -  nocc_ = 0.00000002
 On Iteration in Bisection 23
 a: 0.00000  b:-0.00000

 -0.11481 = (-0.11481 + -0.11481)/2.0
 sum -  nocc_ = -0.00000013
 On Iteration in Bisection 24
 a: -0.00000  b:-0.00000

 -0.11481 = (-0.11481 + -0.11481)/2.0
 sum -  nocc_ = -0.00000005
 On Iteration in Bisection 25
 a: -0.00000  b:-0.00000

 -0.11481 = (-0.11481 + -0.11481)/2.0
 sum -  nocc_ = -0.00000001
 On Iteration in Bisection 26
 a: -0.00000  b:-0.00000

 -0.11481 = (-0.11481 + -0.11481)/2.0
 sum -  nocc_ = 0.00000001
 ef = -0.11481 sum = 1.00000 

 Iter: 0  T:    20000.000  val:-0.114810  sumni 0.00000
 ne = 1.0000

 iter:1  failiter:1  energy:     -1.052208226796  total:     -0.740927515860  error:     -0.085208774089
 In Bisection function HOMO = -0.331  LUMO =  2.002

 0.83536 = (-0.33149 + 2.00220)/2.0
 sum -  nocc_ = 2.51159692
 On Iteration in Bisection 0
 a: 2.51160  b:-0.48240

 0.25193 = (-0.33149 + 0.83536)/2.0
 sum -  nocc_ = 1.01718672
 On Iteration in Bisection 1
 a: 1.01719  b:-0.48240

 -0.03978 = (-0.33149 + 0.25193)/2.0
 sum -  nocc_ = 0.63233569
 On Iteration in Bisection 2
 a: 0.63234  b:-0.48240

 -0.18563 = (-0.33149 + -0.03978)/2.0
 sum -  nocc_ = 0.06115219
 On Iteration in Bisection 3
 a: 0.06115  b:-0.48240

 -0.25856 = (-0.33149 + -0.18563)/2.0
 sum -  nocc_ = -0.18657465
 On Iteration in Bisection 4
 a: -0.18657  b:-0.48240

 -0.22210 = (-0.25856 + -0.18563)/2.0
 sum -  nocc_ = -0.05936519
 On Iteration in Bisection 5
 a: -0.05937  b:-0.18657

 -0.20387 = (-0.22210 + -0.18563)/2.0
 sum -  nocc_ = 0.00087957
 On Iteration in Bisection 6
 a: 0.00088  b:-0.05937

 -0.21298 = (-0.22210 + -0.20387)/2.0
 sum -  nocc_ = -0.02913103
 On Iteration in Bisection 7
 a: -0.02913  b:-0.05937

 -0.20842 = (-0.21298 + -0.20387)/2.0
 sum -  nocc_ = -0.01411208
 On Iteration in Bisection 8
 a: -0.01411  b:-0.02913

 -0.20615 = (-0.20842 + -0.20387)/2.0
 sum -  nocc_ = -0.00661466
 On Iteration in Bisection 9
 a: -0.00661  b:-0.01411

 -0.20501 = (-0.20615 + -0.20387)/2.0
 sum -  nocc_ = -0.00286737
 On Iteration in Bisection 10
 a: -0.00287  b:-0.00661

 -0.20444 = (-0.20501 + -0.20387)/2.0
 sum -  nocc_ = -0.00099389
 On Iteration in Bisection 11
 a: -0.00099  b:-0.00287

 -0.20415 = (-0.20444 + -0.20387)/2.0
 sum -  nocc_ = -0.00005716
 On Iteration in Bisection 12
 a: -0.00006  b:-0.00099

 -0.20401 = (-0.20415 + -0.20387)/2.0
 sum -  nocc_ = 0.00041120
 On Iteration in Bisection 13
 a: 0.00041  b:-0.00006

 -0.20408 = (-0.20415 + -0.20401)/2.0
 sum -  nocc_ = 0.00017702
 On Iteration in Bisection 14
 a: 0.00018  b:-0.00006

 -0.20412 = (-0.20415 + -0.20408)/2.0
 sum -  nocc_ = 0.00005993
 On Iteration in Bisection 15
 a: 0.00006  b:-0.00006

 -0.20413 = (-0.20415 + -0.20412)/2.0
 sum -  nocc_ = 0.00000138
 On Iteration in Bisection 16
 a: 0.00000  b:-0.00006

 -0.20414 = (-0.20415 + -0.20413)/2.0
 sum -  nocc_ = -0.00002789
 On Iteration in Bisection 17
 a: -0.00003  b:-0.00006

 -0.20414 = (-0.20414 + -0.20413)/2.0
 sum -  nocc_ = -0.00001325
 On Iteration in Bisection 18
 a: -0.00001  b:-0.00003

 -0.20414 = (-0.20414 + -0.20413)/2.0
 sum -  nocc_ = -0.00000593
 On Iteration in Bisection 19
 a: -0.00001  b:-0.00001

 -0.20413 = (-0.20414 + -0.20413)/2.0
 sum -  nocc_ = -0.00000228
 On Iteration in Bisection 20
 a: -0.00000  b:-0.00001

 -0.20413 = (-0.20413 + -0.20413)/2.0
 sum -  nocc_ = -0.00000045
 On Iteration in Bisection 21
 a: -0.00000  b:-0.00000

 -0.20413 = (-0.20413 + -0.20413)/2.0
 sum -  nocc_ = 0.00000047
 On Iteration in Bisection 22
 a: 0.00000  b:-0.00000

 -0.20413 = (-0.20413 + -0.20413)/2.0
 sum -  nocc_ = 0.00000001
 On Iteration in Bisection 23
 a: 0.00000  b:-0.00000

 -0.20413 = (-0.20413 + -0.20413)/2.0
 sum -  nocc_ = -0.00000022
 On Iteration in Bisection 24
 a: -0.00000  b:-0.00000

 -0.20413 = (-0.20413 + -0.20413)/2.0
 sum -  nocc_ = -0.00000010
 On Iteration in Bisection 25
 a: -0.00000  b:-0.00000

 -0.20413 = (-0.20413 + -0.20413)/2.0
 sum -  nocc_ = -0.00000005
 On Iteration in Bisection 26
 a: -0.00000  b:-0.00000

 -0.20413 = (-0.20413 + -0.20413)/2.0
 sum -  nocc_ = -0.00000002
 On Iteration in Bisection 27
 a: -0.00000  b:-0.00000

 -0.20413 = (-0.20413 + -0.20413)/2.0
 sum -  nocc_ = -0.00000000
 ef = -0.20413 sum = 1.00000 

 Iter: 1  T:    20000.000  val:-0.204134  sumni 0.00000
 ne = 1.0000

 iter:2  failiter:2  energy:     -1.140283059608  total:     -0.829002348673  error:     -0.088074832812
 In Bisection function HOMO = -0.386  LUMO =  1.932

 0.77307 = (-0.38552 + 1.93166)/2.0
 sum -  nocc_ = 2.68926722
 On Iteration in Bisection 0
 a: 2.68927  b:-0.49648

 0.19377 = (-0.38552 + 0.77307)/2.0
 sum -  nocc_ = 0.97201604
 On Iteration in Bisection 1
 a: 0.97202  b:-0.49648

 -0.09588 = (-0.38552 + 0.19377)/2.0
 sum -  nocc_ = 0.24458673
 On Iteration in Bisection 2
 a: 0.24459  b:-0.49648

 -0.24070 = (-0.38552 + -0.09588)/2.0
 sum -  nocc_ = -0.05865654
 On Iteration in Bisection 3
 a: -0.05866  b:-0.49648

 -0.16829 = (-0.24070 + -0.09588)/2.0
 sum -  nocc_ = 0.06690657
 On Iteration in Bisection 4
 a: 0.06691  b:-0.05866

 -0.20449 = (-0.24070 + -0.16829)/2.0
 sum -  nocc_ = 0.00371514
 On Iteration in Bisection 5
 a: 0.00372  b:-0.05866

 -0.22260 = (-0.24070 + -0.20449)/2.0
 sum -  nocc_ = -0.02673562
 On Iteration in Bisection 6
 a: -0.02674  b:-0.05866

 -0.21355 = (-0.22260 + -0.20449)/2.0
 sum -  nocc_ = -0.01143080
 On Iteration in Bisection 7
 a: -0.01143  b:-0.02674

 -0.20902 = (-0.21355 + -0.20449)/2.0
 sum -  nocc_ = -0.00385112
 On Iteration in Bisection 8
 a: -0.00385  b:-0.01143

 -0.20676 = (-0.20902 + -0.20449)/2.0
 sum -  nocc_ = -0.00006796
 On Iteration in Bisection 9
 a: -0.00007  b:-0.00385

 -0.20563 = (-0.20676 + -0.20449)/2.0
 sum -  nocc_ = 0.00182339
 On Iteration in Bisection 10
 a: 0.00182  b:-0.00007

 -0.20619 = (-0.20676 + -0.20563)/2.0
 sum -  nocc_ = 0.00087769
 On Iteration in Bisection 11
 a: 0.00088  b:-0.00007

 -0.20647 = (-0.20676 + -0.20619)/2.0
 sum -  nocc_ = 0.00040486
 On Iteration in Bisection 12
 a: 0.00040  b:-0.00007

 -0.20662 = (-0.20676 + -0.20647)/2.0
 sum -  nocc_ = 0.00016845
 On Iteration in Bisection 13
 a: 0.00017  b:-0.00007

 -0.20669 = (-0.20676 + -0.20662)/2.0
 sum -  nocc_ = 0.00005024
 On Iteration in Bisection 14
 a: 0.00005  b:-0.00007

 -0.20672 = (-0.20676 + -0.20669)/2.0
 sum -  nocc_ = -0.00000886
 On Iteration in Bisection 15
 a: -0.00001  b:-0.00007

 -0.20670 = (-0.20672 + -0.20669)/2.0
 sum -  nocc_ = 0.00002069
 On Iteration in Bisection 16
 a: 0.00002  b:-0.00001

 -0.20671 = (-0.20672 + -0.20670)/2.0
 sum -  nocc_ = 0.00000592
 On Iteration in Bisection 17
 a: 0.00001  b:-0.00001

 -0.20672 = (-0.20672 + -0.20671)/2.0
 sum -  nocc_ = -0.00000147
 On Iteration in Bisection 18
 a: -0.00000  b:-0.00001

 -0.20671 = (-0.20672 + -0.20671)/2.0
 sum -  nocc_ = 0.00000222
 On Iteration in Bisection 19
 a: 0.00000  b:-0.00000

 -0.20672 = (-0.20672 + -0.20671)/2.0
 sum -  nocc_ = 0.00000038
 On Iteration in Bisection 20
 a: 0.00000  b:-0.00000

 -0.20672 = (-0.20672 + -0.20672)/2.0
 sum -  nocc_ = -0.00000055
 On Iteration in Bisection 21
 a: -0.00000  b:-0.00000

 -0.20672 = (-0.20672 + -0.20672)/2.0
 sum -  nocc_ = -0.00000009
 On Iteration in Bisection 22
 a: -0.00000  b:-0.00000

 -0.20672 = (-0.20672 + -0.20672)/2.0
 sum -  nocc_ = 0.00000015
 On Iteration in Bisection 23
 a: 0.00000  b:-0.00000

 -0.20672 = (-0.20672 + -0.20672)/2.0
 sum -  nocc_ = 0.00000003
 On Iteration in Bisection 24
 a: 0.00000  b:-0.00000

 -0.20672 = (-0.20672 + -0.20672)/2.0
 sum -  nocc_ = -0.00000003
 On Iteration in Bisection 25
 a: -0.00000  b:-0.00000

 -0.20672 = (-0.20672 + -0.20672)/2.0
 sum -  nocc_ = 0.00000000
 ef = -0.20672 sum = 1.00000 

 Iter: 2  T:    20000.000  val:-0.206716  sumni 0.00000
 ne = 1.0000

 iter:3  failiter:3  energy:     -1.217243175409  total:     -0.905962464473  error:     -0.076960115801
 In Bisection function HOMO = -0.403  LUMO =  1.931

 0.76435 = (-0.40275 + 1.93144)/2.0
 sum -  nocc_ = 2.66747435
 On Iteration in Bisection 0
 a: 2.66747  b:-0.49797

 0.18080 = (-0.40275 + 0.76435)/2.0
 sum -  nocc_ = 0.95425718
 On Iteration in Bisection 1
 a: 0.95426  b:-0.49797

 -0.11098 = (-0.40275 + 0.18080)/2.0
 sum -  nocc_ = 0.15953601
 On Iteration in Bisection 2
 a: 0.15954  b:-0.49797

 -0.25686 = (-0.40275 + -0.11098)/2.0
 sum -  nocc_ = -0.07086133
 On Iteration in Bisection 3
 a: -0.07086  b:-0.49797

 -0.18392 = (-0.25686 + -0.11098)/2.0
 sum -  nocc_ = 0.02995501
 On Iteration in Bisection 4
 a: 0.02996  b:-0.07086

 -0.22039 = (-0.25686 + -0.18392)/2.0
 sum -  nocc_ = -0.01820300
 On Iteration in Bisection 5
 a: -0.01820  b:-0.07086

 -0.20216 = (-0.22039 + -0.18392)/2.0
 sum -  nocc_ = 0.00569848
 On Iteration in Bisection 6
 a: 0.00570  b:-0.01820

 -0.21127 = (-0.22039 + -0.20216)/2.0
 sum -  nocc_ = -0.00620394
 On Iteration in Bisection 7
 a: -0.00620  b:-0.01820

 -0.20671 = (-0.21127 + -0.20216)/2.0
 sum -  nocc_ = -0.00025224
 On Iteration in Bisection 8
 a: -0.00025  b:-0.00620

 -0.20444 = (-0.20671 + -0.20216)/2.0
 sum -  nocc_ = 0.00272179
 On Iteration in Bisection 9
 a: 0.00272  b:-0.00025

 -0.20558 = (-0.20671 + -0.20444)/2.0
 sum -  nocc_ = 0.00123463
 On Iteration in Bisection 10
 a: 0.00123  b:-0.00025

 -0.20614 = (-0.20671 + -0.20558)/2.0
 sum -  nocc_ = 0.00049118
 On Iteration in Bisection 11
 a: 0.00049  b:-0.00025

 -0.20643 = (-0.20671 + -0.20614)/2.0
 sum -  nocc_ = 0.00011947
 On Iteration in Bisection 12
 a: 0.00012  b:-0.00025

 -0.20657 = (-0.20671 + -0.20643)/2.0
 sum -  nocc_ = -0.00006639
 On Iteration in Bisection 13
 a: -0.00007  b:-0.00025

 -0.20650 = (-0.20657 + -0.20643)/2.0
 sum -  nocc_ = 0.00002654
 On Iteration in Bisection 14
 a: 0.00003  b:-0.00007

 -0.20654 = (-0.20657 + -0.20650)/2.0
 sum -  nocc_ = -0.00001992
 On Iteration in Bisection 15
 a: -0.00002  b:-0.00007

 -0.20652 = (-0.20654 + -0.20650)/2.0
 sum -  nocc_ = 0.00000331
 On Iteration in Bisection 16
 a: 0.00000  b:-0.00002

 -0.20653 = (-0.20654 + -0.20652)/2.0
 sum -  nocc_ = -0.00000831
 On Iteration in Bisection 17
 a: -0.00001  b:-0.00002

 -0.20652 = (-0.20653 + -0.20652)/2.0
 sum -  nocc_ = -0.00000250
 On Iteration in Bisection 18
 a: -0.00000  b:-0.00001

 -0.20652 = (-0.20652 + -0.20652)/2.0
 sum -  nocc_ = 0.00000040
 On Iteration in Bisection 19
 a: 0.00000  b:-0.00000

 -0.20652 = (-0.20652 + -0.20652)/2.0
 sum -  nocc_ = -0.00000105
 On Iteration in Bisection 20
 a: -0.00000  b:-0.00000

 -0.20652 = (-0.20652 + -0.20652)/2.0
 sum -  nocc_ = -0.00000032
 On Iteration in Bisection 21
 a: -0.00000  b:-0.00000

 -0.20652 = (-0.20652 + -0.20652)/2.0
 sum -  nocc_ = 0.00000004
 On Iteration in Bisection 22
 a: 0.00000  b:-0.00000

 -0.20652 = (-0.20652 + -0.20652)/2.0
 sum -  nocc_ = -0.00000014
 On Iteration in Bisection 23
 a: -0.00000  b:-0.00000

 -0.20652 = (-0.20652 + -0.20652)/2.0
 sum -  nocc_ = -0.00000005
 On Iteration in Bisection 24
 a: -0.00000  b:-0.00000

 -0.20652 = (-0.20652 + -0.20652)/2.0
 sum -  nocc_ = -0.00000000
 ef = -0.20652 sum = 1.00000 

 Iter: 3  T:    20000.000  val:-0.206521  sumni 0.00000
 ne = 1.0000

 iter:4  failiter:4  energy:     -1.240297170073  total:     -0.929016459137  error:     -0.023053994664
 In Bisection function HOMO = -0.406  LUMO =  1.933

 0.76354 = (-0.40560 + 1.93268)/2.0
 sum -  nocc_ = 2.66158717
 On Iteration in Bisection 0
 a: 2.66159  b:-0.49817

 0.17897 = (-0.40560 + 0.76354)/2.0
 sum -  nocc_ = 0.94998305
 On Iteration in Bisection 1
 a: 0.94998  b:-0.49817

 -0.11332 = (-0.40560 + 0.17897)/2.0
 sum -  nocc_ = 0.14609346
 On Iteration in Bisection 2
 a: 0.14609  b:-0.49817

 -0.25946 = (-0.40560 + -0.11332)/2.0
 sum -  nocc_ = -0.07245450
 On Iteration in Bisection 3
 a: -0.07245  b:-0.49817

 -0.18639 = (-0.25946 + -0.11332)/2.0
 sum -  nocc_ = 0.02461835
 On Iteration in Bisection 4
 a: 0.02462  b:-0.07245

 -0.22292 = (-0.25946 + -0.18639)/2.0
 sum -  nocc_ = -0.02124478
 On Iteration in Bisection 5
 a: -0.02124  b:-0.07245

 -0.20466 = (-0.22292 + -0.18639)/2.0
 sum -  nocc_ = 0.00163480
 On Iteration in Bisection 6
 a: 0.00163  b:-0.02124

 -0.21379 = (-0.22292 + -0.20466)/2.0
 sum -  nocc_ = -0.00972784
 On Iteration in Bisection 7
 a: -0.00973  b:-0.02124

 -0.20922 = (-0.21379 + -0.20466)/2.0
 sum -  nocc_ = -0.00403850
 On Iteration in Bisection 8
 a: -0.00404  b:-0.00973

 -0.20694 = (-0.20922 + -0.20466)/2.0
 sum -  nocc_ = -0.00120125
 On Iteration in Bisection 9
 a: -0.00120  b:-0.00404

 -0.20580 = (-0.20694 + -0.20466)/2.0
 sum -  nocc_ = 0.00021675
 On Iteration in Bisection 10
 a: 0.00022  b:-0.00120

 -0.20637 = (-0.20694 + -0.20580)/2.0
 sum -  nocc_ = -0.00049224
 On Iteration in Bisection 11
 a: -0.00049  b:-0.00120

 -0.20608 = (-0.20637 + -0.20580)/2.0
 sum -  nocc_ = -0.00013774
 On Iteration in Bisection 12
 a: -0.00014  b:-0.00049

 -0.20594 = (-0.20608 + -0.20580)/2.0
 sum -  nocc_ = 0.00003950
 On Iteration in Bisection 13
 a: 0.00004  b:-0.00014

 -0.20601 = (-0.20608 + -0.20594)/2.0
 sum -  nocc_ = -0.00004912
 On Iteration in Bisection 14
 a: -0.00005  b:-0.00014

 -0.20598 = (-0.20601 + -0.20594)/2.0
 sum -  nocc_ = -0.00000481
 On Iteration in Bisection 15
 a: -0.00000  b:-0.00005

 -0.20596 = (-0.20598 + -0.20594)/2.0
 sum -  nocc_ = 0.00001735
 On Iteration in Bisection 16
 a: 0.00002  b:-0.00000

 -0.20597 = (-0.20598 + -0.20596)/2.0
 sum -  nocc_ = 0.00000627
 On Iteration in Bisection 17
 a: 0.00001  b:-0.00000

 -0.20597 = (-0.20598 + -0.20597)/2.0
 sum -  nocc_ = 0.00000073
 On Iteration in Bisection 18
 a: 0.00000  b:-0.00000

 -0.20597 = (-0.20598 + -0.20597)/2.0
 sum -  nocc_ = -0.00000204
 On Iteration in Bisection 19
 a: -0.00000  b:-0.00000

 -0.20597 = (-0.20597 + -0.20597)/2.0
 sum -  nocc_ = -0.00000065
 On Iteration in Bisection 20
 a: -0.00000  b:-0.00000

 -0.20597 = (-0.20597 + -0.20597)/2.0
 sum -  nocc_ = 0.00000004
 On Iteration in Bisection 21
 a: 0.00000  b:-0.00000

 -0.20597 = (-0.20597 + -0.20597)/2.0
 sum -  nocc_ = -0.00000031
 On Iteration in Bisection 22
 a: -0.00000  b:-0.00000

 -0.20597 = (-0.20597 + -0.20597)/2.0
 sum -  nocc_ = -0.00000013
 On Iteration in Bisection 23
 a: -0.00000  b:-0.00000

 -0.20597 = (-0.20597 + -0.20597)/2.0
 sum -  nocc_ = -0.00000005
 On Iteration in Bisection 24
 a: -0.00000  b:-0.00000

 -0.20597 = (-0.20597 + -0.20597)/2.0
 sum -  nocc_ = -0.00000000
 ef = -0.20597 sum = 1.00000 

 Iter: 4  T:    20000.000  val:-0.205972  sumni 0.00000
 ne = 1.0000

 iter:5  failiter:5  energy:     -1.244203219622  total:     -0.932922508686  error:     -0.003906049549
 In Bisection function HOMO = -0.406  LUMO =  1.933

 0.76347 = (-0.40603 + 1.93297)/2.0
 sum -  nocc_ = 2.66058705
 On Iteration in Bisection 0
 a: 2.66059  b:-0.49821

 0.17872 = (-0.40603 + 0.76347)/2.0
 sum -  nocc_ = 0.94925026
 On Iteration in Bisection 1
 a: 0.94925  b:-0.49821

 -0.11366 = (-0.40603 + 0.17872)/2.0
 sum -  nocc_ = 0.14396355
 On Iteration in Bisection 2
 a: 0.14396  b:-0.49821

 -0.25984 = (-0.40603 + -0.11366)/2.0
 sum -  nocc_ = -0.07269598
 On Iteration in Bisection 3
 a: -0.07270  b:-0.49821

 -0.18675 = (-0.25984 + -0.11366)/2.0
 sum -  nocc_ = 0.02378561
 On Iteration in Bisection 4
 a: 0.02379  b:-0.07270

 -0.22330 = (-0.25984 + -0.18675)/2.0
 sum -  nocc_ = -0.02171488
 On Iteration in Bisection 5
 a: -0.02171  b:-0.07270

 -0.20502 = (-0.22330 + -0.18675)/2.0
 sum -  nocc_ = 0.00100335
 On Iteration in Bisection 6
 a: 0.00100  b:-0.02171

 -0.21416 = (-0.22330 + -0.20502)/2.0
 sum -  nocc_ = -0.01027405
 On Iteration in Bisection 7
 a: -0.01027  b:-0.02171

 -0.20959 = (-0.21416 + -0.20502)/2.0
 sum -  nocc_ = -0.00462614
 On Iteration in Bisection 8
 a: -0.00463  b:-0.01027

 -0.20731 = (-0.20959 + -0.20502)/2.0
 sum -  nocc_ = -0.00181049
 On Iteration in Bisection 9
 a: -0.00181  b:-0.00463

 -0.20617 = (-0.20731 + -0.20502)/2.0
 sum -  nocc_ = -0.00040352
 On Iteration in Bisection 10
 a: -0.00040  b:-0.00181

 -0.20559 = (-0.20617 + -0.20502)/2.0
 sum -  nocc_ = 0.00029991
 On Iteration in Bisection 11
 a: 0.00030  b:-0.00040

 -0.20588 = (-0.20617 + -0.20559)/2.0
 sum -  nocc_ = -0.00005180
 On Iteration in Bisection 12
 a: -0.00005  b:-0.00040

 -0.20574 = (-0.20588 + -0.20559)/2.0
 sum -  nocc_ = 0.00012405
 On Iteration in Bisection 13
 a: 0.00012  b:-0.00005

 -0.20581 = (-0.20588 + -0.20574)/2.0
 sum -  nocc_ = 0.00003612
 On Iteration in Bisection 14
 a: 0.00004  b:-0.00005

 -0.20584 = (-0.20588 + -0.20581)/2.0
 sum -  nocc_ = -0.00000784
 On Iteration in Bisection 15
 a: -0.00001  b:-0.00005

 -0.20583 = (-0.20584 + -0.20581)/2.0
 sum -  nocc_ = 0.00001414
 On Iteration in Bisection 16
 a: 0.00001  b:-0.00001

 -0.20584 = (-0.20584 + -0.20583)/2.0
 sum -  nocc_ = 0.00000315
 On Iteration in Bisection 17
 a: 0.00000  b:-0.00001

 -0.20584 = (-0.20584 + -0.20584)/2.0
 sum -  nocc_ = -0.00000235
 On Iteration in Bisection 18
 a: -0.00000  b:-0.00001

 -0.20584 = (-0.20584 + -0.20584)/2.0
 sum -  nocc_ = 0.00000040
 On Iteration in Bisection 19
 a: 0.00000  b:-0.00000

 -0.20584 = (-0.20584 + -0.20584)/2.0
 sum -  nocc_ = -0.00000097
 On Iteration in Bisection 20
 a: -0.00000  b:-0.00000

 -0.20584 = (-0.20584 + -0.20584)/2.0
 sum -  nocc_ = -0.00000028
 On Iteration in Bisection 21
 a: -0.00000  b:-0.00000

 -0.20584 = (-0.20584 + -0.20584)/2.0
 sum -  nocc_ = 0.00000006
 On Iteration in Bisection 22
 a: 0.00000  b:-0.00000

 -0.20584 = (-0.20584 + -0.20584)/2.0
 sum -  nocc_ = -0.00000011
 On Iteration in Bisection 23
 a: -0.00000  b:-0.00000

 -0.20584 = (-0.20584 + -0.20584)/2.0
 sum -  nocc_ = -0.00000003
 On Iteration in Bisection 24
 a: -0.00000  b:-0.00000

 -0.20584 = (-0.20584 + -0.20584)/2.0
 sum -  nocc_ = 0.00000002
 On Iteration in Bisection 25
 a: 0.00000  b:-0.00000

 -0.20584 = (-0.20584 + -0.20584)/2.0
 sum -  nocc_ = -0.00000001
 ef = -0.20584 sum = 1.00000 

 Iter: 5  T:    20000.000  val:-0.205838  sumni 0.00000
 ne = 1.0000

 iter:6  failiter:6  energy:     -1.244811121237  total:     -0.933530410301  error:     -0.000607901615
 In Bisection function HOMO = -0.406  LUMO =  1.933

 0.76347 = (-0.40610 + 1.93303)/2.0
 sum -  nocc_ = 2.66043757
 On Iteration in Bisection 0
 a: 2.66044  b:-0.49821

 0.17869 = (-0.40610 + 0.76347)/2.0
 sum -  nocc_ = 0.94913144
 On Iteration in Bisection 1
 a: 0.94913  b:-0.49821

 -0.11370 = (-0.40610 + 0.17869)/2.0
 sum -  nocc_ = 0.14362153
 On Iteration in Bisection 2
 a: 0.14362  b:-0.49821

 -0.25990 = (-0.40610 + -0.11370)/2.0
 sum -  nocc_ = -0.07273420
 On Iteration in Bisection 3
 a: -0.07273  b:-0.49821

 -0.18680 = (-0.25990 + -0.11370)/2.0
 sum -  nocc_ = 0.02365227
 On Iteration in Bisection 4
 a: 0.02365  b:-0.07273

 -0.22335 = (-0.25990 + -0.18680)/2.0
 sum -  nocc_ = -0.02178991
 On Iteration in Bisection 5
 a: -0.02179  b:-0.07273

 -0.20508 = (-0.22335 + -0.18680)/2.0
 sum -  nocc_ = 0.00090237
 On Iteration in Bisection 6
 a: 0.00090  b:-0.02179

 -0.21421 = (-0.22335 + -0.20508)/2.0
 sum -  nocc_ = -0.01036132
 On Iteration in Bisection 7
 a: -0.01036  b:-0.02179

 -0.20965 = (-0.21421 + -0.20508)/2.0
 sum -  nocc_ = -0.00472007
 On Iteration in Bisection 8
 a: -0.00472  b:-0.01036

 -0.20736 = (-0.20965 + -0.20508)/2.0
 sum -  nocc_ = -0.00190790
 On Iteration in Bisection 9
 a: -0.00191  b:-0.00472

 -0.20622 = (-0.20736 + -0.20508)/2.0
 sum -  nocc_ = -0.00050270
 On Iteration in Bisection 10
 a: -0.00050  b:-0.00191

 -0.20565 = (-0.20622 + -0.20508)/2.0
 sum -  nocc_ = 0.00019983
 On Iteration in Bisection 11
 a: 0.00020  b:-0.00050

 -0.20593 = (-0.20622 + -0.20565)/2.0
 sum -  nocc_ = -0.00015144
 On Iteration in Bisection 12
 a: -0.00015  b:-0.00050

 -0.20579 = (-0.20593 + -0.20565)/2.0
 sum -  nocc_ = 0.00002420
 On Iteration in Bisection 13
 a: 0.00002  b:-0.00015

 -0.20586 = (-0.20593 + -0.20579)/2.0
 sum -  nocc_ = -0.00006362
 On Iteration in Bisection 14
 a: -0.00006  b:-0.00015

 -0.20583 = (-0.20586 + -0.20579)/2.0
 sum -  nocc_ = -0.00001971
 On Iteration in Bisection 15
 a: -0.00002  b:-0.00006

 -0.20581 = (-0.20583 + -0.20579)/2.0
 sum -  nocc_ = 0.00000224
 On Iteration in Bisection 16
 a: 0.00000  b:-0.00002

 -0.20582 = (-0.20583 + -0.20581)/2.0
 sum -  nocc_ = -0.00000873
 On Iteration in Bisection 17
 a: -0.00001  b:-0.00002

 -0.20581 = (-0.20582 + -0.20581)/2.0
 sum -  nocc_ = -0.00000325
 On Iteration in Bisection 18
 a: -0.00000  b:-0.00001

 -0.20581 = (-0.20581 + -0.20581)/2.0
 sum -  nocc_ = -0.00000050
 On Iteration in Bisection 19
 a: -0.00000  b:-0.00000

 -0.20581 = (-0.20581 + -0.20581)/2.0
 sum -  nocc_ = 0.00000087
 On Iteration in Bisection 20
 a: 0.00000  b:-0.00000

 -0.20581 = (-0.20581 + -0.20581)/2.0
 sum -  nocc_ = 0.00000018
 On Iteration in Bisection 21
 a: 0.00000  b:-0.00000

 -0.20581 = (-0.20581 + -0.20581)/2.0
 sum -  nocc_ = -0.00000016
 On Iteration in Bisection 22
 a: -0.00000  b:-0.00000

 -0.20581 = (-0.20581 + -0.20581)/2.0
 sum -  nocc_ = 0.00000001
 On Iteration in Bisection 23
 a: 0.00000  b:-0.00000

 -0.20581 = (-0.20581 + -0.20581)/2.0
 sum -  nocc_ = -0.00000007
 On Iteration in Bisection 24
 a: -0.00000  b:-0.00000

 -0.20581 = (-0.20581 + -0.20581)/2.0
 sum -  nocc_ = -0.00000003
 On Iteration in Bisection 25
 a: -0.00000  b:-0.00000

 -0.20581 = (-0.20581 + -0.20581)/2.0
 sum -  nocc_ = -0.00000001
 ef = -0.20581 sum = 1.00000 

 Iter: 6  T:    20000.000  val:-0.205811  sumni 0.00000
 ne = 1.0000

 iter:7  failiter:7  energy:     -1.244904424539  total:     -0.933623713604  error:     -0.000093303302
 In Bisection function HOMO = -0.406  LUMO =  1.933

 0.76347 = (-0.40611 + 1.93305)/2.0
 sum -  nocc_ = 2.66041530
 On Iteration in Bisection 0
 a: 2.66042  b:-0.49821

 0.17868 = (-0.40611 + 0.76347)/2.0
 sum -  nocc_ = 0.94911225
 On Iteration in Bisection 1
 a: 0.94911  b:-0.49821

 -0.11371 = (-0.40611 + 0.17868)/2.0
 sum -  nocc_ = 0.14356618
 On Iteration in Bisection 2
 a: 0.14357  b:-0.49821

 -0.25991 = (-0.40611 + -0.11371)/2.0
 sum -  nocc_ = -0.07274032
 On Iteration in Bisection 3
 a: -0.07274  b:-0.49821

 -0.18681 = (-0.25991 + -0.11371)/2.0
 sum -  nocc_ = 0.02363071
 On Iteration in Bisection 4
 a: 0.02363  b:-0.07274

 -0.22336 = (-0.25991 + -0.18681)/2.0
 sum -  nocc_ = -0.02180201
 On Iteration in Bisection 5
 a: -0.02180  b:-0.07274

 -0.20508 = (-0.22336 + -0.18681)/2.0
 sum -  nocc_ = 0.00088606
 On Iteration in Bisection 6
 a: 0.00089  b:-0.02180

 -0.21422 = (-0.22336 + -0.20508)/2.0
 sum -  nocc_ = -0.01037541
 On Iteration in Bisection 7
 a: -0.01038  b:-0.02180

 -0.20965 = (-0.21422 + -0.20508)/2.0
 sum -  nocc_ = -0.00473524
 On Iteration in Bisection 8
 a: -0.00474  b:-0.01038

 -0.20737 = (-0.20965 + -0.20508)/2.0
 sum -  nocc_ = -0.00192363
 On Iteration in Bisection 9
 a: -0.00192  b:-0.00474

 -0.20623 = (-0.20737 + -0.20508)/2.0
 sum -  nocc_ = -0.00051872
 On Iteration in Bisection 10
 a: -0.00052  b:-0.00192

 -0.20566 = (-0.20623 + -0.20508)/2.0
 sum -  nocc_ = 0.00018366
 On Iteration in Bisection 11
 a: 0.00018  b:-0.00052

 -0.20594 = (-0.20623 + -0.20566)/2.0
 sum -  nocc_ = -0.00016753
 On Iteration in Bisection 12
 a: -0.00017  b:-0.00052

 -0.20580 = (-0.20594 + -0.20566)/2.0
 sum -  nocc_ = 0.00000807
 On Iteration in Bisection 13
 a: 0.00001  b:-0.00017

 -0.20587 = (-0.20594 + -0.20580)/2.0
 sum -  nocc_ = -0.00007973
 On Iteration in Bisection 14
 a: -0.00008  b:-0.00017

 -0.20583 = (-0.20587 + -0.20580)/2.0
 sum -  nocc_ = -0.00003583
 On Iteration in Bisection 15
 a: -0.00004  b:-0.00008

 -0.20582 = (-0.20583 + -0.20580)/2.0
 sum -  nocc_ = -0.00001388
 On Iteration in Bisection 16
 a: -0.00001  b:-0.00004

 -0.20581 = (-0.20582 + -0.20580)/2.0
 sum -  nocc_ = -0.00000291
 On Iteration in Bisection 17
 a: -0.00000  b:-0.00001

 -0.20580 = (-0.20581 + -0.20580)/2.0
 sum -  nocc_ = 0.00000258
 On Iteration in Bisection 18
 a: 0.00000  b:-0.00000

 -0.20581 = (-0.20581 + -0.20580)/2.0
 sum -  nocc_ = -0.00000017
 On Iteration in Bisection 19
 a: -0.00000  b:-0.00000

 -0.20580 = (-0.20581 + -0.20580)/2.0
 sum -  nocc_ = 0.00000121
 On Iteration in Bisection 20
 a: 0.00000  b:-0.00000

 -0.20580 = (-0.20581 + -0.20580)/2.0
 sum -  nocc_ = 0.00000052
 On Iteration in Bisection 21
 a: 0.00000  b:-0.00000

 -0.20580 = (-0.20581 + -0.20580)/2.0
 sum -  nocc_ = 0.00000018
 On Iteration in Bisection 22
 a: 0.00000  b:-0.00000

 -0.20581 = (-0.20581 + -0.20580)/2.0
 sum -  nocc_ = 0.00000001
 ef = -0.20581 sum = 1.00000 

 Iter: 7  T:    20000.000  val:-0.205805  sumni 0.00000
 ne = 1.0000

 iter:8  failiter:8  energy:     -1.244918835545  total:     -0.933638124610  error:     -0.000014411006
 In Bisection function HOMO = -0.406  LUMO =  1.933

 0.76347 = (-0.40611 + 1.93305)/2.0
 sum -  nocc_ = 2.66041199
 On Iteration in Bisection 0
 a: 2.66041  b:-0.49821

 0.17868 = (-0.40611 + 0.76347)/2.0
 sum -  nocc_ = 0.94910914
 On Iteration in Bisection 1
 a: 0.94911  b:-0.49821

 -0.11371 = (-0.40611 + 0.17868)/2.0
 sum -  nocc_ = 0.14355717
 On Iteration in Bisection 2
 a: 0.14356  b:-0.49821

 -0.25991 = (-0.40611 + -0.11371)/2.0
 sum -  nocc_ = -0.07274131
 On Iteration in Bisection 3
 a: -0.07274  b:-0.49821

 -0.18681 = (-0.25991 + -0.11371)/2.0
 sum -  nocc_ = 0.02362720
 On Iteration in Bisection 4
 a: 0.02363  b:-0.07274

 -0.22336 = (-0.25991 + -0.18681)/2.0
 sum -  nocc_ = -0.02180398
 On Iteration in Bisection 5
 a: -0.02180  b:-0.07274

 -0.20509 = (-0.22336 + -0.18681)/2.0
 sum -  nocc_ = 0.00088340
 On Iteration in Bisection 6
 a: 0.00088  b:-0.02180

 -0.21422 = (-0.22336 + -0.20509)/2.0
 sum -  nocc_ = -0.01037770
 On Iteration in Bisection 7
 a: -0.01038  b:-0.02180

 -0.20965 = (-0.21422 + -0.20509)/2.0
 sum -  nocc_ = -0.00473771
 On Iteration in Bisection 8
 a: -0.00474  b:-0.01038

 -0.20737 = (-0.20965 + -0.20509)/2.0
 sum -  nocc_ = -0.00192619
 On Iteration in Bisection 9
 a: -0.00193  b:-0.00474

 -0.20623 = (-0.20737 + -0.20509)/2.0
 sum -  nocc_ = -0.00052133
 On Iteration in Bisection 10
 a: -0.00052  b:-0.00193

 -0.20566 = (-0.20623 + -0.20509)/2.0
 sum -  nocc_ = 0.00018103
 On Iteration in Bisection 11
 a: 0.00018  b:-0.00052

 -0.20594 = (-0.20623 + -0.20566)/2.0
 sum -  nocc_ = -0.00017015
 On Iteration in Bisection 12
 a: -0.00017  b:-0.00052

 -0.20580 = (-0.20594 + -0.20566)/2.0
 sum -  nocc_ = 0.00000544
 On Iteration in Bisection 13
 a: 0.00001  b:-0.00017

 -0.20587 = (-0.20594 + -0.20580)/2.0
 sum -  nocc_ = -0.00008235
 On Iteration in Bisection 14
 a: -0.00008  b:-0.00017

 -0.20584 = (-0.20587 + -0.20580)/2.0
 sum -  nocc_ = -0.00003846
 On Iteration in Bisection 15
 a: -0.00004  b:-0.00008

 -0.20582 = (-0.20584 + -0.20580)/2.0
 sum -  nocc_ = -0.00001651
 On Iteration in Bisection 16
 a: -0.00002  b:-0.00004

 -0.20581 = (-0.20582 + -0.20580)/2.0
 sum -  nocc_ = -0.00000553
 On Iteration in Bisection 17
 a: -0.00001  b:-0.00002

 -0.20580 = (-0.20581 + -0.20580)/2.0
 sum -  nocc_ = -0.00000004
 On Iteration in Bisection 18
 a: -0.00000  b:-0.00001

 -0.20580 = (-0.20580 + -0.20580)/2.0
 sum -  nocc_ = 0.00000270
 On Iteration in Bisection 19
 a: 0.00000  b:-0.00000

 -0.20580 = (-0.20580 + -0.20580)/2.0
 sum -  nocc_ = 0.00000133
 On Iteration in Bisection 20
 a: 0.00000  b:-0.00000

 -0.20580 = (-0.20580 + -0.20580)/2.0
 sum -  nocc_ = 0.00000064
 On Iteration in Bisection 21
 a: 0.00000  b:-0.00000

 -0.20580 = (-0.20580 + -0.20580)/2.0
 sum -  nocc_ = 0.00000030
 On Iteration in Bisection 22
 a: 0.00000  b:-0.00000

 -0.20580 = (-0.20580 + -0.20580)/2.0
 sum -  nocc_ = 0.00000013
 On Iteration in Bisection 23
 a: 0.00000  b:-0.00000

 -0.20580 = (-0.20580 + -0.20580)/2.0
 sum -  nocc_ = 0.00000004
 On Iteration in Bisection 24
 a: 0.00000  b:-0.00000

 -0.20580 = (-0.20580 + -0.20580)/2.0
 sum -  nocc_ = -0.00000000
 ef = -0.20580 sum = 1.00000 

 Iter: 8  T:    20000.000  val:-0.205804  sumni 0.00000
 ne = 1.0000

 iter:9  failiter:9  energy:     -1.244921051584  total:     -0.933640340649  error:     -0.000002216039
 In Bisection function HOMO = -0.406  LUMO =  1.933

 0.76347 = (-0.40611 + 1.93305)/2.0
 sum -  nocc_ = 2.66041150
 On Iteration in Bisection 0
 a: 2.66041  b:-0.49821

 0.17868 = (-0.40611 + 0.76347)/2.0
 sum -  nocc_ = 0.94910863
 On Iteration in Bisection 1
 a: 0.94911  b:-0.49821

 -0.11371 = (-0.40611 + 0.17868)/2.0
 sum -  nocc_ = 0.14355569
 On Iteration in Bisection 2
 a: 0.14356  b:-0.49821

 -0.25991 = (-0.40611 + -0.11371)/2.0
 sum -  nocc_ = -0.07274147
 On Iteration in Bisection 3
 a: -0.07274  b:-0.49821

 -0.18681 = (-0.25991 + -0.11371)/2.0
 sum -  nocc_ = 0.02362663
 On Iteration in Bisection 4
 a: 0.02363  b:-0.07274

 -0.22336 = (-0.25991 + -0.18681)/2.0
 sum -  nocc_ = -0.02180430
 On Iteration in Bisection 5
 a: -0.02180  b:-0.07274

 -0.20509 = (-0.22336 + -0.18681)/2.0
 sum -  nocc_ = 0.00088297
 On Iteration in Bisection 6
 a: 0.00088  b:-0.02180

 -0.21422 = (-0.22336 + -0.20509)/2.0
 sum -  nocc_ = -0.01037808
 On Iteration in Bisection 7
 a: -0.01038  b:-0.02180

 -0.20965 = (-0.21422 + -0.20509)/2.0
 sum -  nocc_ = -0.00473811
 On Iteration in Bisection 8
 a: -0.00474  b:-0.01038

 -0.20737 = (-0.20965 + -0.20509)/2.0
 sum -  nocc_ = -0.00192661
 On Iteration in Bisection 9
 a: -0.00193  b:-0.00474

 -0.20623 = (-0.20737 + -0.20509)/2.0
 sum -  nocc_ = -0.00052176
 On Iteration in Bisection 10
 a: -0.00052  b:-0.00193

 -0.20566 = (-0.20623 + -0.20509)/2.0
 sum -  nocc_ = 0.00018060
 On Iteration in Bisection 11
 a: 0.00018  b:-0.00052

 -0.20594 = (-0.20623 + -0.20566)/2.0
 sum -  nocc_ = -0.00017058
 On Iteration in Bisection 12
 a: -0.00017  b:-0.00052

 -0.20580 = (-0.20594 + -0.20566)/2.0
 sum -  nocc_ = 0.00000501
 On Iteration in Bisection 13
 a: 0.00001  b:-0.00017

 -0.20587 = (-0.20594 + -0.20580)/2.0
 sum -  nocc_ = -0.00008278
 On Iteration in Bisection 14
 a: -0.00008  b:-0.00017

 -0.20584 = (-0.20587 + -0.20580)/2.0
 sum -  nocc_ = -0.00003888
 On Iteration in Bisection 15
 a: -0.00004  b:-0.00008

 -0.20582 = (-0.20584 + -0.20580)/2.0
 sum -  nocc_ = -0.00001694
 On Iteration in Bisection 16
 a: -0.00002  b:-0.00004

 -0.20581 = (-0.20582 + -0.20580)/2.0
 sum -  nocc_ = -0.00000596
 On Iteration in Bisection 17
 a: -0.00001  b:-0.00002

 -0.20580 = (-0.20581 + -0.20580)/2.0
 sum -  nocc_ = -0.00000047
 On Iteration in Bisection 18
 a: -0.00000  b:-0.00001

 -0.20580 = (-0.20580 + -0.20580)/2.0
 sum -  nocc_ = 0.00000227
 On Iteration in Bisection 19
 a: 0.00000  b:-0.00000

 -0.20580 = (-0.20580 + -0.20580)/2.0
 sum -  nocc_ = 0.00000090
 On Iteration in Bisection 20
 a: 0.00000  b:-0.00000

 -0.20580 = (-0.20580 + -0.20580)/2.0
 sum -  nocc_ = 0.00000021
 On Iteration in Bisection 21
 a: 0.00000  b:-0.00000

 -0.20580 = (-0.20580 + -0.20580)/2.0
 sum -  nocc_ = -0.00000013
 On Iteration in Bisection 22
 a: -0.00000  b:-0.00000

 -0.20580 = (-0.20580 + -0.20580)/2.0
 sum -  nocc_ = 0.00000004
 On Iteration in Bisection 23
 a: 0.00000  b:-0.00000

 -0.20580 = (-0.20580 + -0.20580)/2.0
 sum -  nocc_ = -0.00000005
 On Iteration in Bisection 24
 a: -0.00000  b:-0.00000

 -0.20580 = (-0.20580 + -0.20580)/2.0
 sum -  nocc_ = -0.00000000
 ef = -0.20580 sum = 1.00000 

 Iter: 9  T:    20000.000  val:-0.205804  sumni 0.00000
 ne = 1.0000

 iter:10  failiter:10  energy:     -1.244921402995  total:     -0.933640692059  error:     -0.000000351411
 In Bisection function HOMO = -0.406  LUMO =  1.933

 0.76347 = (-0.40611 + 1.93305)/2.0
 sum -  nocc_ = 2.66041143
 On Iteration in Bisection 0
 a: 2.66041  b:-0.49821

 0.17868 = (-0.40611 + 0.76347)/2.0
 sum -  nocc_ = 0.94910855
 On Iteration in Bisection 1
 a: 0.94911  b:-0.49821

 -0.11371 = (-0.40611 + 0.17868)/2.0
 sum -  nocc_ = 0.14355545
 On Iteration in Bisection 2
 a: 0.14356  b:-0.49821

 -0.25991 = (-0.40611 + -0.11371)/2.0
 sum -  nocc_ = -0.07274150
 On Iteration in Bisection 3
 a: -0.07274  b:-0.49821

 -0.18681 = (-0.25991 + -0.11371)/2.0
 sum -  nocc_ = 0.02362653
 On Iteration in Bisection 4
 a: 0.02363  b:-0.07274

 -0.22336 = (-0.25991 + -0.18681)/2.0
 sum -  nocc_ = -0.02180435
 On Iteration in Bisection 5
 a: -0.02180  b:-0.07274

 -0.20509 = (-0.22336 + -0.18681)/2.0
 sum -  nocc_ = 0.00088290
 On Iteration in Bisection 6
 a: 0.00088  b:-0.02180

 -0.21422 = (-0.22336 + -0.20509)/2.0
 sum -  nocc_ = -0.01037814
 On Iteration in Bisection 7
 a: -0.01038  b:-0.02180

 -0.20965 = (-0.21422 + -0.20509)/2.0
 sum -  nocc_ = -0.00473818
 On Iteration in Bisection 8
 a: -0.00474  b:-0.01038

 -0.20737 = (-0.20965 + -0.20509)/2.0
 sum -  nocc_ = -0.00192668
 On Iteration in Bisection 9
 a: -0.00193  b:-0.00474

 -0.20623 = (-0.20737 + -0.20509)/2.0
 sum -  nocc_ = -0.00052183
 On Iteration in Bisection 10
 a: -0.00052  b:-0.00193

 -0.20566 = (-0.20623 + -0.20509)/2.0
 sum -  nocc_ = 0.00018053
 On Iteration in Bisection 11
 a: 0.00018  b:-0.00052

 -0.20594 = (-0.20623 + -0.20566)/2.0
 sum -  nocc_ = -0.00017065
 On Iteration in Bisection 12
 a: -0.00017  b:-0.00052

 -0.20580 = (-0.20594 + -0.20566)/2.0
 sum -  nocc_ = 0.00000494
 On Iteration in Bisection 13
 a: 0.00000  b:-0.00017

 -0.20587 = (-0.20594 + -0.20580)/2.0
 sum -  nocc_ = -0.00008285
 On Iteration in Bisection 14
 a: -0.00008  b:-0.00017

 -0.20584 = (-0.20587 + -0.20580)/2.0
 sum -  nocc_ = -0.00003895
 On Iteration in Bisection 15
 a: -0.00004  b:-0.00008

 -0.20582 = (-0.20584 + -0.20580)/2.0
 sum -  nocc_ = -0.00001701
 On Iteration in Bisection 16
 a: -0.00002  b:-0.00004

 -0.20581 = (-0.20582 + -0.20580)/2.0
 sum -  nocc_ = -0.00000603
 On Iteration in Bisection 17
 a: -0.00001  b:-0.00002

 -0.20580 = (-0.20581 + -0.20580)/2.0
 sum -  nocc_ = -0.00000054
 On Iteration in Bisection 18
 a: -0.00000  b:-0.00001

 -0.20580 = (-0.20580 + -0.20580)/2.0
 sum -  nocc_ = 0.00000220
 On Iteration in Bisection 19
 a: 0.00000  b:-0.00000

 -0.20580 = (-0.20580 + -0.20580)/2.0
 sum -  nocc_ = 0.00000083
 On Iteration in Bisection 20
 a: 0.00000  b:-0.00000

 -0.20580 = (-0.20580 + -0.20580)/2.0
 sum -  nocc_ = 0.00000014
 On Iteration in Bisection 21
 a: 0.00000  b:-0.00000

 -0.20580 = (-0.20580 + -0.20580)/2.0
 sum -  nocc_ = -0.00000020
 On Iteration in Bisection 22
 a: -0.00000  b:-0.00000

 -0.20580 = (-0.20580 + -0.20580)/2.0
 sum -  nocc_ = -0.00000003
 On Iteration in Bisection 23
 a: -0.00000  b:-0.00000

 -0.20580 = (-0.20580 + -0.20580)/2.0
 sum -  nocc_ = 0.00000006
 On Iteration in Bisection 24
 a: 0.00000  b:-0.00000

 -0.20580 = (-0.20580 + -0.20580)/2.0
 sum -  nocc_ = 0.00000001
 On Iteration in Bisection 25
 a: 0.00000  b:-0.00000

 -0.20580 = (-0.20580 + -0.20580)/2.0
 sum -  nocc_ = -0.00000001
 ef = -0.20580 sum = 1.00000 

 Iter: 10  T:    20000.000  val:-0.205804  sumni 0.00000
 ne = 1.0000

 iter:11  failiter:11  energy:     -1.244921451479  total:     -0.933640740544  error:     -0.000000048484
 In Bisection function HOMO = -0.406  LUMO =  1.933

 0.76347 = (-0.40611 + 1.93305)/2.0
 sum -  nocc_ = 2.66041142
 On Iteration in Bisection 0
 a: 2.66041  b:-0.49821

 0.17868 = (-0.40611 + 0.76347)/2.0
 sum -  nocc_ = 0.94910854
 On Iteration in Bisection 1
 a: 0.94911  b:-0.49821

 -0.11371 = (-0.40611 + 0.17868)/2.0
 sum -  nocc_ = 0.14355540
 On Iteration in Bisection 2
 a: 0.14356  b:-0.49821

 -0.25991 = (-0.40611 + -0.11371)/2.0
 sum -  nocc_ = -0.07274150
 On Iteration in Bisection 3
 a: -0.07274  b:-0.49821

 -0.18681 = (-0.25991 + -0.11371)/2.0
 sum -  nocc_ = 0.02362652
 On Iteration in Bisection 4
 a: 0.02363  b:-0.07274

 -0.22336 = (-0.25991 + -0.18681)/2.0
 sum -  nocc_ = -0.02180436
 On Iteration in Bisection 5
 a: -0.02180  b:-0.07274

 -0.20509 = (-0.22336 + -0.18681)/2.0
 sum -  nocc_ = 0.00088289
 On Iteration in Bisection 6
 a: 0.00088  b:-0.02180

 -0.21422 = (-0.22336 + -0.20509)/2.0
 sum -  nocc_ = -0.01037815
 On Iteration in Bisection 7
 a: -0.01038  b:-0.02180

 -0.20965 = (-0.21422 + -0.20509)/2.0
 sum -  nocc_ = -0.00473819
 On Iteration in Bisection 8
 a: -0.00474  b:-0.01038

 -0.20737 = (-0.20965 + -0.20509)/2.0
 sum -  nocc_ = -0.00192669
 On Iteration in Bisection 9
 a: -0.00193  b:-0.00474

 -0.20623 = (-0.20737 + -0.20509)/2.0
 sum -  nocc_ = -0.00052184
 On Iteration in Bisection 10
 a: -0.00052  b:-0.00193

 -0.20566 = (-0.20623 + -0.20509)/2.0
 sum -  nocc_ = 0.00018052
 On Iteration in Bisection 11
 a: 0.00018  b:-0.00052

 -0.20594 = (-0.20623 + -0.20566)/2.0
 sum -  nocc_ = -0.00017066
 On Iteration in Bisection 12
 a: -0.00017  b:-0.00052

 -0.20580 = (-0.20594 + -0.20566)/2.0
 sum -  nocc_ = 0.00000493
 On Iteration in Bisection 13
 a: 0.00000  b:-0.00017

 -0.20587 = (-0.20594 + -0.20580)/2.0
 sum -  nocc_ = -0.00008286
 On Iteration in Bisection 14
 a: -0.00008  b:-0.00017

 -0.20584 = (-0.20587 + -0.20580)/2.0
 sum -  nocc_ = -0.00003897
 On Iteration in Bisection 15
 a: -0.00004  b:-0.00008

 -0.20582 = (-0.20584 + -0.20580)/2.0
 sum -  nocc_ = -0.00001702
 On Iteration in Bisection 16
 a: -0.00002  b:-0.00004

 -0.20581 = (-0.20582 + -0.20580)/2.0
 sum -  nocc_ = -0.00000604
 On Iteration in Bisection 17
 a: -0.00001  b:-0.00002

 -0.20580 = (-0.20581 + -0.20580)/2.0
 sum -  nocc_ = -0.00000056
 On Iteration in Bisection 18
 a: -0.00000  b:-0.00001

 -0.20580 = (-0.20580 + -0.20580)/2.0
 sum -  nocc_ = 0.00000219
 On Iteration in Bisection 19
 a: 0.00000  b:-0.00000

 -0.20580 = (-0.20580 + -0.20580)/2.0
 sum -  nocc_ = 0.00000081
 On Iteration in Bisection 20
 a: 0.00000  b:-0.00000

 -0.20580 = (-0.20580 + -0.20580)/2.0
 sum -  nocc_ = 0.00000013
 On Iteration in Bisection 21
 a: 0.00000  b:-0.00000

 -0.20580 = (-0.20580 + -0.20580)/2.0
 sum -  nocc_ = -0.00000021
 On Iteration in Bisection 22
 a: -0.00000  b:-0.00000

 -0.20580 = (-0.20580 + -0.20580)/2.0
 sum -  nocc_ = -0.00000004
 On Iteration in Bisection 23
 a: -0.00000  b:-0.00000

 -0.20580 = (-0.20580 + -0.20580)/2.0
 sum -  nocc_ = 0.00000004
 On Iteration in Bisection 24
 a: 0.00000  b:-0.00000

 -0.20580 = (-0.20580 + -0.20580)/2.0
 sum -  nocc_ = 0.00000000
 ef = -0.20580 sum = 1.00000 

 Iter: 11  T:    20000.000  val:-0.205804  sumni 0.00000
 ne = 1.0000

 iter:12  failiter:12  energy:     -1.244921472779  total:     -0.933640761844  error:     -0.000000021300
 In Bisection function HOMO = -0.406  LUMO =  1.933

 0.76347 = (-0.40611 + 1.93305)/2.0
 sum -  nocc_ = 2.66041142
 On Iteration in Bisection 0
 a: 2.66041  b:-0.49821

 0.17868 = (-0.40611 + 0.76347)/2.0
 sum -  nocc_ = 0.94910853
 On Iteration in Bisection 1
 a: 0.94911  b:-0.49821

 -0.11371 = (-0.40611 + 0.17868)/2.0
 sum -  nocc_ = 0.14355540
 On Iteration in Bisection 2
 a: 0.14356  b:-0.49821

 -0.25991 = (-0.40611 + -0.11371)/2.0
 sum -  nocc_ = -0.07274150
 On Iteration in Bisection 3
 a: -0.07274  b:-0.49821

 -0.18681 = (-0.25991 + -0.11371)/2.0
 sum -  nocc_ = 0.02362651
 On Iteration in Bisection 4
 a: 0.02363  b:-0.07274

 -0.22336 = (-0.25991 + -0.18681)/2.0
 sum -  nocc_ = -0.02180436
 On Iteration in Bisection 5
 a: -0.02180  b:-0.07274

 -0.20509 = (-0.22336 + -0.18681)/2.0
 sum -  nocc_ = 0.00088288
 On Iteration in Bisection 6
 a: 0.00088  b:-0.02180

 -0.21422 = (-0.22336 + -0.20509)/2.0
 sum -  nocc_ = -0.01037815
 On Iteration in Bisection 7
 a: -0.01038  b:-0.02180

 -0.20965 = (-0.21422 + -0.20509)/2.0
 sum -  nocc_ = -0.00473819
 On Iteration in Bisection 8
 a: -0.00474  b:-0.01038

 -0.20737 = (-0.20965 + -0.20509)/2.0
 sum -  nocc_ = -0.00192669
 On Iteration in Bisection 9
 a: -0.00193  b:-0.00474

 -0.20623 = (-0.20737 + -0.20509)/2.0
 sum -  nocc_ = -0.00052184
 On Iteration in Bisection 10
 a: -0.00052  b:-0.00193

 -0.20566 = (-0.20623 + -0.20509)/2.0
 sum -  nocc_ = 0.00018052
 On Iteration in Bisection 11
 a: 0.00018  b:-0.00052

 -0.20594 = (-0.20623 + -0.20566)/2.0
 sum -  nocc_ = -0.00017066
 On Iteration in Bisection 12
 a: -0.00017  b:-0.00052

 -0.20580 = (-0.20594 + -0.20566)/2.0
 sum -  nocc_ = 0.00000493
 On Iteration in Bisection 13
 a: 0.00000  b:-0.00017

 -0.20587 = (-0.20594 + -0.20580)/2.0
 sum -  nocc_ = -0.00008287
 On Iteration in Bisection 14
 a: -0.00008  b:-0.00017

 -0.20584 = (-0.20587 + -0.20580)/2.0
 sum -  nocc_ = -0.00003897
 On Iteration in Bisection 15
 a: -0.00004  b:-0.00008

 -0.20582 = (-0.20584 + -0.20580)/2.0
 sum -  nocc_ = -0.00001702
 On Iteration in Bisection 16
 a: -0.00002  b:-0.00004

 -0.20581 = (-0.20582 + -0.20580)/2.0
 sum -  nocc_ = -0.00000605
 On Iteration in Bisection 17
 a: -0.00001  b:-0.00002

 -0.20580 = (-0.20581 + -0.20580)/2.0
 sum -  nocc_ = -0.00000056
 On Iteration in Bisection 18
 a: -0.00000  b:-0.00001

 -0.20580 = (-0.20580 + -0.20580)/2.0
 sum -  nocc_ = 0.00000219
 On Iteration in Bisection 19
 a: 0.00000  b:-0.00000

 -0.20580 = (-0.20580 + -0.20580)/2.0
 sum -  nocc_ = 0.00000081
 On Iteration in Bisection 20
 a: 0.00000  b:-0.00000

 -0.20580 = (-0.20580 + -0.20580)/2.0
 sum -  nocc_ = 0.00000013
 On Iteration in Bisection 21
 a: 0.00000  b:-0.00000

 -0.20580 = (-0.20580 + -0.20580)/2.0
 sum -  nocc_ = -0.00000022
 On Iteration in Bisection 22
 a: -0.00000  b:-0.00000

 -0.20580 = (-0.20580 + -0.20580)/2.0
 sum -  nocc_ = -0.00000004
 On Iteration in Bisection 23
 a: -0.00000  b:-0.00000

 -0.20580 = (-0.20580 + -0.20580)/2.0
 sum -  nocc_ = 0.00000004
 On Iteration in Bisection 24
 a: 0.00000  b:-0.00000

 -0.20580 = (-0.20580 + -0.20580)/2.0
 sum -  nocc_ = -0.00000000
 ef = -0.20580 sum = 1.00000 

 Iter: 12  T:    20000.000  val:-0.205804  sumni 0.00000
 ne = 1.0000

 iter:13  failiter:13  energy:     -1.244921467035  total:     -0.933640756099  error:      0.000000005744
 In Bisection function HOMO = -0.406  LUMO =  1.933

 0.76347 = (-0.40611 + 1.93305)/2.0
 sum -  nocc_ = 2.66041142
 On Iteration in Bisection 0
 a: 2.66041  b:-0.49821

 0.17868 = (-0.40611 + 0.76347)/2.0
 sum -  nocc_ = 0.94910853
 On Iteration in Bisection 1
 a: 0.94911  b:-0.49821

 -0.11371 = (-0.40611 + 0.17868)/2.0
 sum -  nocc_ = 0.14355540
 On Iteration in Bisection 2
 a: 0.14356  b:-0.49821

 -0.25991 = (-0.40611 + -0.11371)/2.0
 sum -  nocc_ = -0.07274150
 On Iteration in Bisection 3
 a: -0.07274  b:-0.49821

 -0.18681 = (-0.25991 + -0.11371)/2.0
 sum -  nocc_ = 0.02362651
 On Iteration in Bisection 4
 a: 0.02363  b:-0.07274

 -0.22336 = (-0.25991 + -0.18681)/2.0
 sum -  nocc_ = -0.02180436
 On Iteration in Bisection 5
 a: -0.02180  b:-0.07274

 -0.20509 = (-0.22336 + -0.18681)/2.0
 sum -  nocc_ = 0.00088288
 On Iteration in Bisection 6
 a: 0.00088  b:-0.02180

 -0.21422 = (-0.22336 + -0.20509)/2.0
 sum -  nocc_ = -0.01037815
 On Iteration in Bisection 7
 a: -0.01038  b:-0.02180

 -0.20965 = (-0.21422 + -0.20509)/2.0
 sum -  nocc_ = -0.00473819
 On Iteration in Bisection 8
 a: -0.00474  b:-0.01038

 -0.20737 = (-0.20965 + -0.20509)/2.0
 sum -  nocc_ = -0.00192669
 On Iteration in Bisection 9
 a: -0.00193  b:-0.00474

 -0.20623 = (-0.20737 + -0.20509)/2.0
 sum -  nocc_ = -0.00052184
 On Iteration in Bisection 10
 a: -0.00052  b:-0.00193

 -0.20566 = (-0.20623 + -0.20509)/2.0
 sum -  nocc_ = 0.00018052
 On Iteration in Bisection 11
 a: 0.00018  b:-0.00052

 -0.20594 = (-0.20623 + -0.20566)/2.0
 sum -  nocc_ = -0.00017066
 On Iteration in Bisection 12
 a: -0.00017  b:-0.00052

 -0.20580 = (-0.20594 + -0.20566)/2.0
 sum -  nocc_ = 0.00000493
 On Iteration in Bisection 13
 a: 0.00000  b:-0.00017

 -0.20587 = (-0.20594 + -0.20580)/2.0
 sum -  nocc_ = -0.00008287
 On Iteration in Bisection 14
 a: -0.00008  b:-0.00017

 -0.20584 = (-0.20587 + -0.20580)/2.0
 sum -  nocc_ = -0.00003897
 On Iteration in Bisection 15
 a: -0.00004  b:-0.00008

 -0.20582 = (-0.20584 + -0.20580)/2.0
 sum -  nocc_ = -0.00001702
 On Iteration in Bisection 16
 a: -0.00002  b:-0.00004

 -0.20581 = (-0.20582 + -0.20580)/2.0
 sum -  nocc_ = -0.00000605
 On Iteration in Bisection 17
 a: -0.00001  b:-0.00002

 -0.20580 = (-0.20581 + -0.20580)/2.0
 sum -  nocc_ = -0.00000056
 On Iteration in Bisection 18
 a: -0.00000  b:-0.00001

 -0.20580 = (-0.20580 + -0.20580)/2.0
 sum -  nocc_ = 0.00000218
 On Iteration in Bisection 19
 a: 0.00000  b:-0.00000

 -0.20580 = (-0.20580 + -0.20580)/2.0
 sum -  nocc_ = 0.00000081
 On Iteration in Bisection 20
 a: 0.00000  b:-0.00000

 -0.20580 = (-0.20580 + -0.20580)/2.0
 sum -  nocc_ = 0.00000013
 On Iteration in Bisection 21
 a: 0.00000  b:-0.00000

 -0.20580 = (-0.20580 + -0.20580)/2.0
 sum -  nocc_ = -0.00000022
 On Iteration in Bisection 22
 a: -0.00000  b:-0.00000

 -0.20580 = (-0.20580 + -0.20580)/2.0
 sum -  nocc_ = -0.00000004
 On Iteration in Bisection 23
 a: -0.00000  b:-0.00000

 -0.20580 = (-0.20580 + -0.20580)/2.0
 sum -  nocc_ = 0.00000004
 On Iteration in Bisection 24
 a: 0.00000  b:-0.00000

 -0.20580 = (-0.20580 + -0.20580)/2.0
 sum -  nocc_ = -0.00000000
 ef = -0.20580 sum = 1.00000 

 Iter: 13  T:    20000.000  val:-0.205804  sumni 0.00000
 ne = 1.0000

 iter:14  failiter:14  energy:     -1.244921467861  total:     -0.933640756925  error:     -0.000000000826
 In Bisection function HOMO = -0.406  LUMO =  1.933

 0.76347 = (-0.40611 + 1.93305)/2.0
 sum -  nocc_ = 2.66041142
 On Iteration in Bisection 0
 a: 2.66041  b:-0.49821

 0.17868 = (-0.40611 + 0.76347)/2.0
 sum -  nocc_ = 0.94910853
 On Iteration in Bisection 1
 a: 0.94911  b:-0.49821

 -0.11371 = (-0.40611 + 0.17868)/2.0
 sum -  nocc_ = 0.14355540
 On Iteration in Bisection 2
 a: 0.14356  b:-0.49821

 -0.25991 = (-0.40611 + -0.11371)/2.0
 sum -  nocc_ = -0.07274150
 On Iteration in Bisection 3
 a: -0.07274  b:-0.49821

 -0.18681 = (-0.25991 + -0.11371)/2.0
 sum -  nocc_ = 0.02362651
 On Iteration in Bisection 4
 a: 0.02363  b:-0.07274

 -0.22336 = (-0.25991 + -0.18681)/2.0
 sum -  nocc_ = -0.02180436
 On Iteration in Bisection 5
 a: -0.02180  b:-0.07274

 -0.20509 = (-0.22336 + -0.18681)/2.0
 sum -  nocc_ = 0.00088288
 On Iteration in Bisection 6
 a: 0.00088  b:-0.02180

 -0.21422 = (-0.22336 + -0.20509)/2.0
 sum -  nocc_ = -0.01037815
 On Iteration in Bisection 7
 a: -0.01038  b:-0.02180

 -0.20965 = (-0.21422 + -0.20509)/2.0
 sum -  nocc_ = -0.00473819
 On Iteration in Bisection 8
 a: -0.00474  b:-0.01038

 -0.20737 = (-0.20965 + -0.20509)/2.0
 sum -  nocc_ = -0.00192669
 On Iteration in Bisection 9
 a: -0.00193  b:-0.00474

 -0.20623 = (-0.20737 + -0.20509)/2.0
 sum -  nocc_ = -0.00052184
 On Iteration in Bisection 10
 a: -0.00052  b:-0.00193

 -0.20566 = (-0.20623 + -0.20509)/2.0
 sum -  nocc_ = 0.00018052
 On Iteration in Bisection 11
 a: 0.00018  b:-0.00052

 -0.20594 = (-0.20623 + -0.20566)/2.0
 sum -  nocc_ = -0.00017066
 On Iteration in Bisection 12
 a: -0.00017  b:-0.00052

 -0.20580 = (-0.20594 + -0.20566)/2.0
 sum -  nocc_ = 0.00000493
 On Iteration in Bisection 13
 a: 0.00000  b:-0.00017

 -0.20587 = (-0.20594 + -0.20580)/2.0
 sum -  nocc_ = -0.00008287
 On Iteration in Bisection 14
 a: -0.00008  b:-0.00017

 -0.20584 = (-0.20587 + -0.20580)/2.0
 sum -  nocc_ = -0.00003897
 On Iteration in Bisection 15
 a: -0.00004  b:-0.00008

 -0.20582 = (-0.20584 + -0.20580)/2.0
 sum -  nocc_ = -0.00001702
 On Iteration in Bisection 16
 a: -0.00002  b:-0.00004

 -0.20581 = (-0.20582 + -0.20580)/2.0
 sum -  nocc_ = -0.00000605
 On Iteration in Bisection 17
 a: -0.00001  b:-0.00002

 -0.20580 = (-0.20581 + -0.20580)/2.0
 sum -  nocc_ = -0.00000056
 On Iteration in Bisection 18
 a: -0.00000  b:-0.00001

 -0.20580 = (-0.20580 + -0.20580)/2.0
 sum -  nocc_ = 0.00000218
 On Iteration in Bisection 19
 a: 0.00000  b:-0.00000

 -0.20580 = (-0.20580 + -0.20580)/2.0
 sum -  nocc_ = 0.00000081
 On Iteration in Bisection 20
 a: 0.00000  b:-0.00000

 -0.20580 = (-0.20580 + -0.20580)/2.0
 sum -  nocc_ = 0.00000013
 On Iteration in Bisection 21
 a: 0.00000  b:-0.00000

 -0.20580 = (-0.20580 + -0.20580)/2.0
 sum -  nocc_ = -0.00000022
 On Iteration in Bisection 22
 a: -0.00000  b:-0.00000

 -0.20580 = (-0.20580 + -0.20580)/2.0
 sum -  nocc_ = -0.00000004
 On Iteration in Bisection 23
 a: -0.00000  b:-0.00000

 -0.20580 = (-0.20580 + -0.20580)/2.0
 sum -  nocc_ = 0.00000004
 On Iteration in Bisection 24
 a: 0.00000  b:-0.00000

 -0.20580 = (-0.20580 + -0.20580)/2.0
 sum -  nocc_ = -0.00000000
 ef = -0.20580 sum = 1.00000 

 Iter: 14  T:    20000.000  val:-0.205804  sumni 0.00000
 ne = 1.0000

 iter:15  failiter:15  energy:     -1.244921468039  total:     -0.933640757104  error:     -0.000000000179
 In Bisection function HOMO = -0.406  LUMO =  1.933

 0.76347 = (-0.40611 + 1.93305)/2.0
 sum -  nocc_ = 2.66041142
 On Iteration in Bisection 0
 a: 2.66041  b:-0.49821

 0.17868 = (-0.40611 + 0.76347)/2.0
 sum -  nocc_ = 0.94910853
 On Iteration in Bisection 1
 a: 0.94911  b:-0.49821

 -0.11371 = (-0.40611 + 0.17868)/2.0
 sum -  nocc_ = 0.14355540
 On Iteration in Bisection 2
 a: 0.14356  b:-0.49821

 -0.25991 = (-0.40611 + -0.11371)/2.0
 sum -  nocc_ = -0.07274150
 On Iteration in Bisection 3
 a: -0.07274  b:-0.49821

 -0.18681 = (-0.25991 + -0.11371)/2.0
 sum -  nocc_ = 0.02362651
 On Iteration in Bisection 4
 a: 0.02363  b:-0.07274

 -0.22336 = (-0.25991 + -0.18681)/2.0
 sum -  nocc_ = -0.02180436
 On Iteration in Bisection 5
 a: -0.02180  b:-0.07274

 -0.20509 = (-0.22336 + -0.18681)/2.0
 sum -  nocc_ = 0.00088288
 On Iteration in Bisection 6
 a: 0.00088  b:-0.02180

 -0.21422 = (-0.22336 + -0.20509)/2.0
 sum -  nocc_ = -0.01037815
 On Iteration in Bisection 7
 a: -0.01038  b:-0.02180

 -0.20965 = (-0.21422 + -0.20509)/2.0
 sum -  nocc_ = -0.00473819
 On Iteration in Bisection 8
 a: -0.00474  b:-0.01038

 -0.20737 = (-0.20965 + -0.20509)/2.0
 sum -  nocc_ = -0.00192669
 On Iteration in Bisection 9
 a: -0.00193  b:-0.00474

 -0.20623 = (-0.20737 + -0.20509)/2.0
 sum -  nocc_ = -0.00052184
 On Iteration in Bisection 10
 a: -0.00052  b:-0.00193

 -0.20566 = (-0.20623 + -0.20509)/2.0
 sum -  nocc_ = 0.00018052
 On Iteration in Bisection 11
 a: 0.00018  b:-0.00052

 -0.20594 = (-0.20623 + -0.20566)/2.0
 sum -  nocc_ = -0.00017066
 On Iteration in Bisection 12
 a: -0.00017  b:-0.00052

 -0.20580 = (-0.20594 + -0.20566)/2.0
 sum -  nocc_ = 0.00000493
 On Iteration in Bisection 13
 a: 0.00000  b:-0.00017

 -0.20587 = (-0.20594 + -0.20580)/2.0
 sum -  nocc_ = -0.00008287
 On Iteration in Bisection 14
 a: -0.00008  b:-0.00017

 -0.20584 = (-0.20587 + -0.20580)/2.0
 sum -  nocc_ = -0.00003897
 On Iteration in Bisection 15
 a: -0.00004  b:-0.00008

 -0.20582 = (-0.20584 + -0.20580)/2.0
 sum -  nocc_ = -0.00001702
 On Iteration in Bisection 16
 a: -0.00002  b:-0.00004

 -0.20581 = (-0.20582 + -0.20580)/2.0
 sum -  nocc_ = -0.00000605
 On Iteration in Bisection 17
 a: -0.00001  b:-0.00002

 -0.20580 = (-0.20581 + -0.20580)/2.0
 sum -  nocc_ = -0.00000056
 On Iteration in Bisection 18
 a: -0.00000  b:-0.00001

 -0.20580 = (-0.20580 + -0.20580)/2.0
 sum -  nocc_ = 0.00000218
 On Iteration in Bisection 19
 a: 0.00000  b:-0.00000

 -0.20580 = (-0.20580 + -0.20580)/2.0
 sum -  nocc_ = 0.00000081
 On Iteration in Bisection 20
 a: 0.00000  b:-0.00000

 -0.20580 = (-0.20580 + -0.20580)/2.0
 sum -  nocc_ = 0.00000013
 On Iteration in Bisection 21
 a: 0.00000  b:-0.00000

 -0.20580 = (-0.20580 + -0.20580)/2.0
 sum -  nocc_ = -0.00000022
 On Iteration in Bisection 22
 a: -0.00000  b:-0.00000

 -0.20580 = (-0.20580 + -0.20580)/2.0
 sum -  nocc_ = -0.00000004
 On Iteration in Bisection 23
 a: -0.00000  b:-0.00000

 -0.20580 = (-0.20580 + -0.20580)/2.0
 sum -  nocc_ = 0.00000004
 On Iteration in Bisection 24
 a: 0.00000  b:-0.00000

 -0.20580 = (-0.20580 + -0.20580)/2.0
 sum -  nocc_ = -0.00000000
 ef = -0.20580 sum = 1.00000 

 Iter: 15  T:    20000.000  val:-0.205804  sumni 0.00000
 ne = 1.0000

 iter:16  failiter:16  energy:     -1.244921468067  total:     -0.933640757132  error:     -0.000000000027
 In Bisection function HOMO = -0.406  LUMO =  1.933

 0.76347 = (-0.40611 + 1.93305)/2.0
 sum -  nocc_ = 2.66041142
 On Iteration in Bisection 0
 a: 2.66041  b:-0.49821

 0.17868 = (-0.40611 + 0.76347)/2.0
 sum -  nocc_ = 0.94910853
 On Iteration in Bisection 1
 a: 0.94911  b:-0.49821

 -0.11371 = (-0.40611 + 0.17868)/2.0
 sum -  nocc_ = 0.14355540
 On Iteration in Bisection 2
 a: 0.14356  b:-0.49821

 -0.25991 = (-0.40611 + -0.11371)/2.0
 sum -  nocc_ = -0.07274150
 On Iteration in Bisection 3
 a: -0.07274  b:-0.49821

 -0.18681 = (-0.25991 + -0.11371)/2.0
 sum -  nocc_ = 0.02362651
 On Iteration in Bisection 4
 a: 0.02363  b:-0.07274

 -0.22336 = (-0.25991 + -0.18681)/2.0
 sum -  nocc_ = -0.02180436
 On Iteration in Bisection 5
 a: -0.02180  b:-0.07274

 -0.20509 = (-0.22336 + -0.18681)/2.0
 sum -  nocc_ = 0.00088288
 On Iteration in Bisection 6
 a: 0.00088  b:-0.02180

 -0.21422 = (-0.22336 + -0.20509)/2.0
 sum -  nocc_ = -0.01037815
 On Iteration in Bisection 7
 a: -0.01038  b:-0.02180

 -0.20965 = (-0.21422 + -0.20509)/2.0
 sum -  nocc_ = -0.00473819
 On Iteration in Bisection 8
 a: -0.00474  b:-0.01038

 -0.20737 = (-0.20965 + -0.20509)/2.0
 sum -  nocc_ = -0.00192669
 On Iteration in Bisection 9
 a: -0.00193  b:-0.00474

 -0.20623 = (-0.20737 + -0.20509)/2.0
 sum -  nocc_ = -0.00052184
 On Iteration in Bisection 10
 a: -0.00052  b:-0.00193

 -0.20566 = (-0.20623 + -0.20509)/2.0
 sum -  nocc_ = 0.00018052
 On Iteration in Bisection 11
 a: 0.00018  b:-0.00052

 -0.20594 = (-0.20623 + -0.20566)/2.0
 sum -  nocc_ = -0.00017066
 On Iteration in Bisection 12
 a: -0.00017  b:-0.00052

 -0.20580 = (-0.20594 + -0.20566)/2.0
 sum -  nocc_ = 0.00000493
 On Iteration in Bisection 13
 a: 0.00000  b:-0.00017

 -0.20587 = (-0.20594 + -0.20580)/2.0
 sum -  nocc_ = -0.00008287
 On Iteration in Bisection 14
 a: -0.00008  b:-0.00017

 -0.20584 = (-0.20587 + -0.20580)/2.0
 sum -  nocc_ = -0.00003897
 On Iteration in Bisection 15
 a: -0.00004  b:-0.00008

 -0.20582 = (-0.20584 + -0.20580)/2.0
 sum -  nocc_ = -0.00001702
 On Iteration in Bisection 16
 a: -0.00002  b:-0.00004

 -0.20581 = (-0.20582 + -0.20580)/2.0
 sum -  nocc_ = -0.00000605
 On Iteration in Bisection 17
 a: -0.00001  b:-0.00002

 -0.20580 = (-0.20581 + -0.20580)/2.0
 sum -  nocc_ = -0.00000056
 On Iteration in Bisection 18
 a: -0.00000  b:-0.00001

 -0.20580 = (-0.20580 + -0.20580)/2.0
 sum -  nocc_ = 0.00000218
 On Iteration in Bisection 19
 a: 0.00000  b:-0.00000

 -0.20580 = (-0.20580 + -0.20580)/2.0
 sum -  nocc_ = 0.00000081
 On Iteration in Bisection 20
 a: 0.00000  b:-0.00000

 -0.20580 = (-0.20580 + -0.20580)/2.0
 sum -  nocc_ = 0.00000013
 On Iteration in Bisection 21
 a: 0.00000  b:-0.00000

 -0.20580 = (-0.20580 + -0.20580)/2.0
 sum -  nocc_ = -0.00000022
 On Iteration in Bisection 22
 a: -0.00000  b:-0.00000

 -0.20580 = (-0.20580 + -0.20580)/2.0
 sum -  nocc_ = -0.00000004
 On Iteration in Bisection 23
 a: -0.00000  b:-0.00000

 -0.20580 = (-0.20580 + -0.20580)/2.0
 sum -  nocc_ = 0.00000004
 On Iteration in Bisection 24
 a: 0.00000  b:-0.00000

 -0.20580 = (-0.20580 + -0.20580)/2.0
 sum -  nocc_ = -0.00000000
 ef = -0.20580 sum = 1.00000 

 Iter: 16  T:    20000.000  val:-0.205804  sumni 0.00000
 ne = 1.0000

 iter:17  failiter:17  energy:     -1.244921468071  total:     -0.933640757136  error:     -0.000000000004
 In Bisection function HOMO = -0.406  LUMO =  1.933

 0.76347 = (-0.40611 + 1.93305)/2.0
 sum -  nocc_ = 2.66041142
 On Iteration in Bisection 0
 a: 2.66041  b:-0.49821

 0.17868 = (-0.40611 + 0.76347)/2.0
 sum -  nocc_ = 0.94910853
 On Iteration in Bisection 1
 a: 0.94911  b:-0.49821

 -0.11371 = (-0.40611 + 0.17868)/2.0
 sum -  nocc_ = 0.14355540
 On Iteration in Bisection 2
 a: 0.14356  b:-0.49821

 -0.25991 = (-0.40611 + -0.11371)/2.0
 sum -  nocc_ = -0.07274150
 On Iteration in Bisection 3
 a: -0.07274  b:-0.49821

 -0.18681 = (-0.25991 + -0.11371)/2.0
 sum -  nocc_ = 0.02362651
 On Iteration in Bisection 4
 a: 0.02363  b:-0.07274

 -0.22336 = (-0.25991 + -0.18681)/2.0
 sum -  nocc_ = -0.02180436
 On Iteration in Bisection 5
 a: -0.02180  b:-0.07274

 -0.20509 = (-0.22336 + -0.18681)/2.0
 sum -  nocc_ = 0.00088288
 On Iteration in Bisection 6
 a: 0.00088  b:-0.02180

 -0.21422 = (-0.22336 + -0.20509)/2.0
 sum -  nocc_ = -0.01037815
 On Iteration in Bisection 7
 a: -0.01038  b:-0.02180

 -0.20965 = (-0.21422 + -0.20509)/2.0
 sum -  nocc_ = -0.00473819
 On Iteration in Bisection 8
 a: -0.00474  b:-0.01038

 -0.20737 = (-0.20965 + -0.20509)/2.0
 sum -  nocc_ = -0.00192669
 On Iteration in Bisection 9
 a: -0.00193  b:-0.00474

 -0.20623 = (-0.20737 + -0.20509)/2.0
 sum -  nocc_ = -0.00052184
 On Iteration in Bisection 10
 a: -0.00052  b:-0.00193

 -0.20566 = (-0.20623 + -0.20509)/2.0
 sum -  nocc_ = 0.00018052
 On Iteration in Bisection 11
 a: 0.00018  b:-0.00052

 -0.20594 = (-0.20623 + -0.20566)/2.0
 sum -  nocc_ = -0.00017066
 On Iteration in Bisection 12
 a: -0.00017  b:-0.00052

 -0.20580 = (-0.20594 + -0.20566)/2.0
 sum -  nocc_ = 0.00000493
 On Iteration in Bisection 13
 a: 0.00000  b:-0.00017

 -0.20587 = (-0.20594 + -0.20580)/2.0
 sum -  nocc_ = -0.00008287
 On Iteration in Bisection 14
 a: -0.00008  b:-0.00017

 -0.20584 = (-0.20587 + -0.20580)/2.0
 sum -  nocc_ = -0.00003897
 On Iteration in Bisection 15
 a: -0.00004  b:-0.00008

 -0.20582 = (-0.20584 + -0.20580)/2.0
 sum -  nocc_ = -0.00001702
 On Iteration in Bisection 16
 a: -0.00002  b:-0.00004

 -0.20581 = (-0.20582 + -0.20580)/2.0
 sum -  nocc_ = -0.00000605
 On Iteration in Bisection 17
 a: -0.00001  b:-0.00002

 -0.20580 = (-0.20581 + -0.20580)/2.0
 sum -  nocc_ = -0.00000056
 On Iteration in Bisection 18
 a: -0.00000  b:-0.00001

 -0.20580 = (-0.20580 + -0.20580)/2.0
 sum -  nocc_ = 0.00000218
 On Iteration in Bisection 19
 a: 0.00000  b:-0.00000

 -0.20580 = (-0.20580 + -0.20580)/2.0
 sum -  nocc_ = 0.00000081
 On Iteration in Bisection 20
 a: 0.00000  b:-0.00000

 -0.20580 = (-0.20580 + -0.20580)/2.0
 sum -  nocc_ = 0.00000013
 On Iteration in Bisection 21
 a: 0.00000  b:-0.00000

 -0.20580 = (-0.20580 + -0.20580)/2.0
 sum -  nocc_ = -0.00000022
 On Iteration in Bisection 22
 a: -0.00000  b:-0.00000

 -0.20580 = (-0.20580 + -0.20580)/2.0
 sum -  nocc_ = -0.00000004
 On Iteration in Bisection 23
 a: -0.00000  b:-0.00000

 -0.20580 = (-0.20580 + -0.20580)/2.0
 sum -  nocc_ = 0.00000004
 On Iteration in Bisection 24
 a: 0.00000  b:-0.00000

 -0.20580 = (-0.20580 + -0.20580)/2.0
 sum -  nocc_ = -0.00000000
 ef = -0.20580 sum = 1.00000 

 Iter: 17  T:    20000.000  val:-0.205804  sumni 0.00000
 ne = 1.0000

 iter:18  failiter:18  energy:     -1.244921468072  total:     -0.933640757136  error:     -0.000000000001
 FTHFEnergy =    -0.933641
 FD_dis[0] = 0.95940717 with -0.406107 eig value
 FD_dis[1] = 0.04059061 with -0.005497 eig value
 FD_dis[2] = 0.00000121 with 0.657156 eig value
 FD_dis[3] = 0.00000101 with 0.668637 eig value
 FD_dis[4] = 0.00000000 with 1.253902 eig value
 FD_dis[5] = 0.00000000 with 1.418868 eig value
 FD_dis[6] = 0.00000000 with 1.418868 eig value
 FD_dis[7] = 0.00000000 with 1.552062 eig value
 FD_dis[8] = 0.00000000 with 1.552062 eig value
 FD_dis[9] = 0.00000000 with 1.933048 eig value
*** PSI4 exiting successfully. Buy a developer a beer!
