    -----------------------------------------------------------------------
          PSI4: An Open-Source Ab Initio Electronic Structure Package
                              PSI 4.0 Driver

               Git: Rev {master} 556e8139d3cfa1f96ccffe2cdf22cc56a185d2b2

    J. M. Turney, A. C. Simmonett, R. M. Parrish, E. G. Hohenstein,
    F. A. Evangelista, J. T. Fermann, B. J. Mintz, L. A. Burns, J. J. Wilke,
    M. L. Abrams, N. J. Russ, M. L. Leininger, C. L. Janssen, E. T. Seidl,
    W. D. Allen, H. F. Schaefer, R. A. King, E. F. Valeev, C. D. Sherrill,
    and T. D. Crawford, WIREs Comput. Mol. Sci. 2, 556-565 (2012)
    (doi: 10.1002/wcms.93)

                         Additional Contributions by
    A. E. DePrince, M. Saitow, U. Bozkaya, A. Yu. Sokolov
    -----------------------------------------------------------------------

    Process ID:  11946
    PSI4DATADIR: /Users/kevinhannon/Programs/psi4cmake/psi4/lib
    Memory level set to 256.000 MB

  ==> Input File <==

--------------------------------------------------------------------------

# PYTHONPATH must include directory above plugin directory.
#     Define either externally or here, then import plugin.
sys.path.insert(0, '/Users/kevinhannon/Programs/Quantum_Programs/Quantum-Programs/GS/')
import scf

molecule {
0 1
H
H 1 2.10000
symmetry c1
units angstrom
}


set {
  basis cc-pvdz
  reference rhf
  scf_type  pk
}

set scf {
  DO_FTHF true
  MAX_ITER 130
  MAX_TEMP 100
  TEMP_INCREMENT 0
  bisect  true
  bisect_iter  40
}
energy('rhf')

energy('scf')


--------------------------------------------------------------------------

*** tstart() called on Kevins-MacBook-Pro.local
*** at Fri Apr 10 18:02:12 2015

/Users/kevinhannon/Programs/Quantum_Programs/Quantum-Programs/GS/scf/scf.so loaded.

*** tstart() called on Kevins-MacBook-Pro.local
*** at Fri Apr 10 18:02:12 2015


         ---------------------------------------------------------
                                   SCF
            by Justin Turney, Rob Parrish, and Andy Simmonett
                              RHF Reference
                        1 Threads,    256 MiB Core
         ---------------------------------------------------------

  ==> Geometry <==

    Molecular point group: c1
    Full point group: D_inf_h

    Geometry (in Angstrom), charge = 0, multiplicity = 1:

       Center              X                  Y                   Z       
    ------------   -----------------  -----------------  -----------------
           H          0.000000000000     0.000000000000    -1.050000000000
           H          0.000000000000     0.000000000000     1.050000000000

  Running in c1 symmetry.

  Rotational constants: A = ************  B =      7.58582  C =      7.58582 [cm^-1]
  Rotational constants: A = ************  B = 227417.28015  C = 227417.28015 [MHz]
  Nuclear repulsion =    0.251989146947619

  Charge       = 0
  Multiplicity = 1
  Electrons    = 2
  Nalpha       = 1
  Nbeta        = 1

  ==> Algorithm <==

  SCF Algorithm Type is PK.
  DIIS enabled.
  MOM disabled.
  Fractional occupation disabled.
  Guess Type is CORE.
  Energy threshold   = 1.00e-06
  Density threshold  = 1.00e-06
  Integral threshold = 0.00e+00

  ==> Primary Basis <==

  Basis Set: CC-PVDZ
    Number of shells: 6
    Number of basis function: 10
    Number of Cartesian functions: 10
    Spherical Harmonics?: true
    Max angular momentum: 1

  ==> Pre-Iterations <==

   -------------------------------------------------------
    Irrep   Nso     Nmo     Nalpha   Nbeta   Ndocc  Nsocc
   -------------------------------------------------------
     A         10      10       0       0       0       0
   -------------------------------------------------------
    Total      10      10       1       1       1       0
   -------------------------------------------------------

  Starting with a DF guess...

 OEINTS: Overlap, kinetic, potential, dipole, and quadrupole integrals
         stored in file 35.

  ==> Integral Setup <==

  ==> DFJK: Density-Fitted J/K Matrices <==

    J tasked:                  Yes
    K tasked:                  Yes
    wK tasked:                  No
    OpenMP threads:              1
    Integrals threads:           1
    Memory (MB):               183
    Algorithm:                Core
    Integral Cache:           NONE
    Schwarz Cutoff:          1E-12
    Fitting Condition:       1E-12

   => Auxiliary Basis Set <=

  Basis Set: 
    Number of shells: 18
    Number of basis function: 46
    Number of Cartesian functions: 50
    Spherical Harmonics?: true
    Max angular momentum: 2

  Minimum eigenvalue in the overlap matrix is 2.2338409434E-01.
  Using Symmetric Orthogonalization.
  SCF Guess: Core (One-Electron) Hamiltonian.

  ==> Iterations <==

                           Total Energy        Delta E     RMS |[F,P]|

   @DF-RHF iter   1:    -0.88902884175856   -8.89029e-01   1.35812e-02 
   @DF-RHF iter   2:    -0.90826343421116   -1.92346e-02   2.33857e-03 DIIS
   @DF-RHF iter   3:    -0.90887994956173   -6.16515e-04   6.92613e-05 DIIS
   @DF-RHF iter   4:    -0.90888038003170   -4.30470e-07   6.61585e-07 DIIS

  DF guess converged.

  ==> Integral Setup <==

 MINTS: Wrapper to libmints.
   by Justin Turney

   Calculation information:
      Number of atoms:                   2
      Number of AO shells:               6
      Number of SO shells:               6
      Number of primitives:             10
      Number of atomic orbitals:        10
      Number of basis functions:        10

      Number of irreps:                  1
      Integral cutoff                 0.00e+00
      Number of functions per irrep: [  10 ]

 OEINTS: Overlap, kinetic, potential, dipole, and quadrupole integrals
         stored in file 35.

      Computing two-electron integrals...done
      Computed 512 non-zero two-electron integrals.
        Stored in file 33.

	Batch   1 pq = [       0,      55] index = [             0,1540]
  ==> DiskJK: Disk-Based J/K Matrices <==

    J tasked:                  Yes
    K tasked:                  Yes
    wK tasked:                  No
    Memory (MB):               183
    Schwarz Cutoff:          1E-12

   @RHF iter   5:    -0.90886890082335    1.14792e-05   4.44552e-06 DIIS
   @RHF iter   6:    -0.90886890272052   -1.89717e-09   7.30329e-07 DIIS

  ==> Post-Iterations <==

    Orbital Energies (a.u.)
    -----------------------

    Doubly Occupied:                                                      

       1A     -0.377358  

    Virtual:                                                              

       2A     -0.047480     3A      0.654555     4A      0.662437  
       5A      1.375917     6A      1.458128     7A      1.458128  
       8A      1.491293     9A      1.491293    10A      1.653297  

    Final Occupation by Irrep:
              A 
    DOCC [     1 ]

  Energy converged.

  @RHF Final Energy:    -0.90886890272052

   => Energetics <=

    Nuclear Repulsion Energy =              0.2519891469476190
    One-Electron Energy =                  -1.5669975131103984
    Two-Electron Energy =                   0.4061394634422628
    DFT Exchange-Correlation Energy =       0.0000000000000000
    Empirical Dispersion Energy =           0.0000000000000000
    PCM Polarization Energy =               0.0000000000000000
    EFP Energy =                            0.0000000000000000
    Total Energy =                         -0.9088689027205166

    Alert: EFP and PCM quantities not currently incorporated into SCF psivars.

Properties will be evaluated at   0.000000,   0.000000,   0.000000 Bohr
  ==> Properties <==


Properties computed using the SCF density matrix

  Nuclear Dipole Moment: (a.u.)
     X:     0.0000      Y:     0.0000      Z:     0.0000

  Electronic Dipole Moment: (a.u.)
     X:    -0.0000      Y:     0.0000      Z:    -0.0000

  Dipole Moment: (a.u.)
     X:    -0.0000      Y:     0.0000      Z:    -0.0000     Total:     0.0000

  Dipole Moment: (Debye)
     X:    -0.0000      Y:     0.0000      Z:    -0.0000     Total:     0.0000


  Saving occupied orbitals to File 180.

*** tstop() called on Kevins-MacBook-Pro.local at Fri Apr 10 18:02:12 2015
Module time:
	user time   =       0.19 seconds =       0.00 minutes
	system time =       0.01 seconds =       0.00 minutes
	total time  =          0 seconds =       0.00 minutes
Total time:
	user time   =       0.21 seconds =       0.00 minutes
	system time =       0.01 seconds =       0.00 minutes
	total time  =          0 seconds =       0.00 minutes

*** tstart() called on Kevins-MacBook-Pro.local
*** at Fri Apr 10 18:02:12 2015


         ---------------------------------------------------------
                                   SCF
            by Justin Turney, Rob Parrish, and Andy Simmonett
                              RHF Reference
                        1 Threads,    256 MiB Core
         ---------------------------------------------------------

  ==> Geometry <==

    Molecular point group: c1
    Full point group: D_inf_h

    Geometry (in Angstrom), charge = 0, multiplicity = 1:

       Center              X                  Y                   Z       
    ------------   -----------------  -----------------  -----------------
           H          0.000000000000     0.000000000000    -1.050000000000
           H          0.000000000000     0.000000000000     1.050000000000

  Running in c1 symmetry.

  Rotational constants: A = ************  B =      7.58582  C =      7.58582 [cm^-1]
  Rotational constants: A = ************  B = 227417.28015  C = 227417.28015 [MHz]
  Nuclear repulsion =    0.251989146947619

  Charge       = 0
  Multiplicity = 1
  Electrons    = 2
  Nalpha       = 1
  Nbeta        = 1

  ==> Algorithm <==

  SCF Algorithm Type is PK.
  DIIS enabled.
  MOM disabled.
  Fractional occupation disabled.
  Guess Type is CORE.
  Energy threshold   = 1.00e-08
  Density threshold  = 1.00e-08
  Integral threshold = 0.00e+00

  ==> Primary Basis <==

  Basis Set: CC-PVDZ
    Number of shells: 6
    Number of basis function: 10
    Number of Cartesian functions: 10
    Spherical Harmonics?: true
    Max angular momentum: 1

  ==> Pre-Iterations <==

   -------------------------------------------------------
    Irrep   Nso     Nmo     Nalpha   Nbeta   Ndocc  Nsocc
   -------------------------------------------------------
     A         10      10       0       0       0       0
   -------------------------------------------------------
    Total      10      10       1       1       1       0
   -------------------------------------------------------

  Starting with a DF guess...

 OEINTS: Overlap, kinetic, potential, dipole, and quadrupole integrals
         stored in file 35.

  ==> Integral Setup <==

  ==> DFJK: Density-Fitted J/K Matrices <==

    J tasked:                  Yes
    K tasked:                  Yes
    wK tasked:                  No
    OpenMP threads:              1
    Integrals threads:           1
    Memory (MB):               183
    Algorithm:                Core
    Integral Cache:           NONE
    Schwarz Cutoff:          1E-12
    Fitting Condition:       1E-12

   => Auxiliary Basis Set <=

  Basis Set: 
    Number of shells: 18
    Number of basis function: 46
    Number of Cartesian functions: 50
    Spherical Harmonics?: true
    Max angular momentum: 2

  Minimum eigenvalue in the overlap matrix is 2.2338409434E-01.
  Using Symmetric Orthogonalization.
  SCF Guess: Core (One-Electron) Hamiltonian.

  ==> Iterations <==

                           Total Energy        Delta E     RMS |[F,P]|

   @DF-RHF iter   1:    -0.88902884175856   -8.89029e-01   1.35812e-02 
   @DF-RHF iter   2:    -0.90826343421116   -1.92346e-02   2.33857e-03 DIIS
   @DF-RHF iter   3:    -0.90887994956173   -6.16515e-04   6.92613e-05 DIIS
   @DF-RHF iter   4:    -0.90888038003170   -4.30470e-07   6.61585e-07 DIIS
   @DF-RHF iter   5:    -0.90888038006367   -3.19709e-11   1.21811e-10 DIIS

  DF guess converged.

  ==> Integral Setup <==

 MINTS: Wrapper to libmints.
   by Justin Turney

   Calculation information:
      Number of atoms:                   2
      Number of AO shells:               6
      Number of SO shells:               6
      Number of primitives:             10
      Number of atomic orbitals:        10
      Number of basis functions:        10

      Number of irreps:                  1
      Integral cutoff                 0.00e+00
      Number of functions per irrep: [  10 ]

 OEINTS: Overlap, kinetic, potential, dipole, and quadrupole integrals
         stored in file 35.

      Computing two-electron integrals...done
      Computed 512 non-zero two-electron integrals.
        Stored in file 33.

	Batch   1 pq = [       0,      55] index = [             0,1540]
  ==> DiskJK: Disk-Based J/K Matrices <==

    J tasked:                  Yes
    K tasked:                  Yes
    wK tasked:                  No
    Memory (MB):               183
    Schwarz Cutoff:          1E-12

   @RHF iter   6:    -0.90886890082346    1.14792e-05   4.44539e-06 DIIS
   @RHF iter   7:    -0.90886890272052   -1.89706e-09   7.30308e-07 DIIS
   @RHF iter   8:    -0.90886890277775   -5.72340e-11   2.53871e-08 DIIS
   @RHF iter   9:    -0.90886890277782   -6.37268e-14   7.70908e-14 DIIS

  ==> Post-Iterations <==

    Orbital Energies (a.u.)
    -----------------------

    Doubly Occupied:                                                      

       1A     -0.377358  

    Virtual:                                                              

       2A     -0.047480     3A      0.654555     4A      0.662437  
       5A      1.375917     6A      1.458128     7A      1.458128  
       8A      1.491293     9A      1.491293    10A      1.653297  

    Final Occupation by Irrep:
              A 
    DOCC [     1 ]

  Energy converged.

  @RHF Final Energy:    -0.90886890277782

   => Energetics <=

    Nuclear Repulsion Energy =              0.2519891469476190
    One-Electron Energy =                  -1.5669994020273292
    Two-Electron Energy =                   0.4061413523018924
    DFT Exchange-Correlation Energy =       0.0000000000000000
    Empirical Dispersion Energy =           0.0000000000000000
    PCM Polarization Energy =               0.0000000000000000
    EFP Energy =                            0.0000000000000000
    Total Energy =                         -0.9088689027778178

    Alert: EFP and PCM quantities not currently incorporated into SCF psivars.

Properties will be evaluated at   0.000000,   0.000000,   0.000000 Bohr
  ==> Properties <==


Properties computed using the SCF density matrix

  Nuclear Dipole Moment: (a.u.)
     X:     0.0000      Y:     0.0000      Z:     0.0000

  Electronic Dipole Moment: (a.u.)
     X:    -0.0000      Y:     0.0000      Z:     0.0000

  Dipole Moment: (a.u.)
     X:    -0.0000      Y:     0.0000      Z:     0.0000     Total:     0.0000

  Dipole Moment: (Debye)
     X:    -0.0000      Y:     0.0000      Z:     0.0000     Total:     0.0000


  Saving occupied orbitals to File 180.

*** tstop() called on Kevins-MacBook-Pro.local at Fri Apr 10 18:02:12 2015
Module time:
	user time   =       0.18 seconds =       0.00 minutes
	system time =       0.01 seconds =       0.00 minutes
	total time  =          0 seconds =       0.00 minutes
Total time:
	user time   =       0.40 seconds =       0.01 minutes
	system time =       0.02 seconds =       0.00 minutes
	total time  =          0 seconds =       0.00 minutes
Reading options from the SCF block
Calling plugin scf.so.
    Molecular point group: c1
    Full point group: D_inf_h

    Geometry (in Angstrom), charge = 0, multiplicity = 1:

       Center              X                  Y                   Z       
    ------------   -----------------  -----------------  -----------------
           H          0.000000000000     0.000000000000    -1.050000000000
           H          0.000000000000     0.000000000000     1.050000000000


    Nuclear repulsion energy:       0.25198915

  ## Overlap (Symmetry 0) ##
  Irrep: 1 Size: 10 x 10

                 1                   2                   3                   4                   5

    1     1.00000000000000     0.68486025149275     0.00000000000000     0.00000000000000     0.00000000000000
    2     0.68486025149275     1.00000000000000     0.00000000000000     0.00000000000000     0.00000000000000
    3     0.00000000000000     0.00000000000000     1.00000000000000     0.00000000000000     0.00000000000000
    4     0.00000000000000     0.00000000000000     0.00000000000000     1.00000000000000     0.00000000000000
    5     0.00000000000000     0.00000000000000     0.00000000000000     0.00000000000000     1.00000000000000
    6     0.02085622028660     0.14709996489478     0.02615259691321     0.00000000000000     0.00000000000000
    7     0.14709996489478     0.38264326100394     0.11027155262901     0.00000000000000     0.00000000000000
    8    -0.02615259691321    -0.11027155262901    -0.03411467472693     0.00000000000000     0.00000000000000
    9     0.00000000000000     0.00000000000000     0.00000000000000     0.00326484838578     0.00000000000000
   10     0.00000000000000     0.00000000000000     0.00000000000000     0.00000000000000     0.00326484838578

                 6                   7                   8                   9                  10

    1     0.02085622028660     0.14709996489478    -0.02615259691321     0.00000000000000     0.00000000000000
    2     0.14709996489478     0.38264326100394    -0.11027155262901     0.00000000000000     0.00000000000000
    3     0.02615259691321     0.11027155262901    -0.03411467472693     0.00000000000000     0.00000000000000
    4     0.00000000000000     0.00000000000000     0.00000000000000     0.00326484838578     0.00000000000000
    5     0.00000000000000     0.00000000000000     0.00000000000000     0.00000000000000     0.00326484838578
    6     1.00000000000000     0.68486025149275    -0.00000000000000     0.00000000000000     0.00000000000000
    7     0.68486025149275     1.00000000000000     0.00000000000000     0.00000000000000     0.00000000000000
    8    -0.00000000000000     0.00000000000000     1.00000000000000     0.00000000000000     0.00000000000000
    9     0.00000000000000     0.00000000000000     0.00000000000000     1.00000000000000     0.00000000000000
   10     0.00000000000000     0.00000000000000     0.00000000000000     0.00000000000000     1.00000000000000



  ## Kinetic (Symmetry 0) ##
  Irrep: 1 Size: 10 x 10

                 1                   2                   3                   4                   5

    1     0.96945722711242     0.20123413106538     0.00000000000000     0.00000000000000     0.00000000000000
    2     0.20123413106538     0.18300000000000     0.00000000000000     0.00000000000000     0.00000000000000
    3     0.00000000000000     0.00000000000000     1.81750000000000     0.00000000000000     0.00000000000000
    4     0.00000000000000     0.00000000000000     0.00000000000000     1.81750000000000     0.00000000000000
    5     0.00000000000000     0.00000000000000     0.00000000000000     0.00000000000000     1.81750000000000
    6    -0.02047627096414    -0.00111469979665    -0.02781951778791     0.00000000000000     0.00000000000000
    7    -0.00111469979665     0.02517809371786     0.01969411678793     0.00000000000000     0.00000000000000
    8     0.02781951778791    -0.01969411678793     0.05279814001588     0.00000000000000     0.00000000000000
    9     0.00000000000000     0.00000000000000     0.00000000000000    -0.00765359471031     0.00000000000000
   10     0.00000000000000     0.00000000000000     0.00000000000000     0.00000000000000    -0.00765359471031

                 6                   7                   8                   9                  10

    1    -0.02047627096414    -0.00111469979665     0.02781951778791     0.00000000000000     0.00000000000000
    2    -0.00111469979665     0.02517809371786    -0.01969411678793     0.00000000000000     0.00000000000000
    3    -0.02781951778791     0.01969411678793     0.05279814001588     0.00000000000000     0.00000000000000
    4     0.00000000000000     0.00000000000000     0.00000000000000    -0.00765359471031     0.00000000000000
    5     0.00000000000000     0.00000000000000     0.00000000000000     0.00000000000000    -0.00765359471031
    6     0.96945722711242     0.20123413106538    -0.00000000000000     0.00000000000000     0.00000000000000
    7     0.20123413106538     0.18300000000000     0.00000000000000     0.00000000000000     0.00000000000000
    8    -0.00000000000000     0.00000000000000     1.81750000000000     0.00000000000000     0.00000000000000
    9     0.00000000000000     0.00000000000000     0.00000000000000     1.81750000000000     0.00000000000000
   10     0.00000000000000     0.00000000000000     0.00000000000000     0.00000000000000     1.81750000000000



  ## Potential (Symmetry 0) ##
  Irrep: 1 Size: 10 x 10

                 1                   2                   3                   4                   5

    1    -1.62985091146953    -0.82228089572673    -0.03994850309618     0.00000000000000     0.00000000000000
    2    -0.82228089572673    -0.80796438994964    -0.03747351481499     0.00000000000000     0.00000000000000
    3    -0.03994850309618    -0.03747351481499    -1.17007478092846     0.00000000000000     0.00000000000000
    4     0.00000000000000     0.00000000000000     0.00000000000000    -1.15356762106692     0.00000000000000
    5     0.00000000000000     0.00000000000000     0.00000000000000     0.00000000000000    -1.15356762106692
    6    -0.02134888295965    -0.16776238670094    -0.02613412860991     0.00000000000000     0.00000000000000
    7    -0.16776238670094    -0.32177433530383    -0.11476002900166     0.00000000000000     0.00000000000000
    8     0.02613412860991     0.11476002900166     0.03382113691654     0.00000000000000     0.00000000000000
    9     0.00000000000000     0.00000000000000     0.00000000000000    -0.00300377931070     0.00000000000000
   10     0.00000000000000     0.00000000000000     0.00000000000000     0.00000000000000    -0.00300377931070

                 6                   7                   8                   9                  10

    1    -0.02134888295965    -0.16776238670094     0.02613412860991     0.00000000000000     0.00000000000000
    2    -0.16776238670094    -0.32177433530383     0.11476002900166     0.00000000000000     0.00000000000000
    3    -0.02613412860991    -0.11476002900166     0.03382113691654     0.00000000000000     0.00000000000000
    4     0.00000000000000     0.00000000000000     0.00000000000000    -0.00300377931070     0.00000000000000
    5     0.00000000000000     0.00000000000000     0.00000000000000     0.00000000000000    -0.00300377931070
    6    -1.62985091146953    -0.82228089572673     0.03994850309618     0.00000000000000     0.00000000000000
    7    -0.82228089572673    -0.80796438994964     0.03747351481499     0.00000000000000     0.00000000000000
    8     0.03994850309618     0.03747351481499    -1.17007478092846     0.00000000000000     0.00000000000000
    9     0.00000000000000     0.00000000000000     0.00000000000000    -1.15356762106692     0.00000000000000
   10     0.00000000000000     0.00000000000000     0.00000000000000     0.00000000000000    -1.15356762106692



  ## One Electron Ints (Symmetry 0) ##
  Irrep: 1 Size: 10 x 10

                 1                   2                   3                   4                   5

    1    -0.66039368435711    -0.62104676466134    -0.03994850309618     0.00000000000000     0.00000000000000
    2    -0.62104676466134    -0.62496438994964    -0.03747351481499     0.00000000000000     0.00000000000000
    3    -0.03994850309618    -0.03747351481499     0.64742521907154     0.00000000000000     0.00000000000000
    4     0.00000000000000     0.00000000000000     0.00000000000000     0.66393237893308     0.00000000000000
    5     0.00000000000000     0.00000000000000     0.00000000000000     0.00000000000000     0.66393237893308
    6    -0.04182515392379    -0.16887708649759    -0.05395364639782     0.00000000000000     0.00000000000000
    7    -0.16887708649759    -0.29659624158597    -0.09506591221373     0.00000000000000     0.00000000000000
    8     0.05395364639782     0.09506591221373     0.08661927693243     0.00000000000000     0.00000000000000
    9     0.00000000000000     0.00000000000000     0.00000000000000    -0.01065737402101     0.00000000000000
   10     0.00000000000000     0.00000000000000     0.00000000000000     0.00000000000000    -0.01065737402101

                 6                   7                   8                   9                  10

    1    -0.04182515392379    -0.16887708649759     0.05395364639782     0.00000000000000     0.00000000000000
    2    -0.16887708649759    -0.29659624158597     0.09506591221373     0.00000000000000     0.00000000000000
    3    -0.05395364639782    -0.09506591221373     0.08661927693243     0.00000000000000     0.00000000000000
    4     0.00000000000000     0.00000000000000     0.00000000000000    -0.01065737402101     0.00000000000000
    5     0.00000000000000     0.00000000000000     0.00000000000000     0.00000000000000    -0.01065737402101
    6    -0.66039368435711    -0.62104676466134     0.03994850309618     0.00000000000000     0.00000000000000
    7    -0.62104676466134    -0.62496438994964     0.03747351481499     0.00000000000000     0.00000000000000
    8     0.03994850309618     0.03747351481499     0.64742521907154     0.00000000000000     0.00000000000000
    9     0.00000000000000     0.00000000000000     0.00000000000000     0.66393237893308     0.00000000000000
   10     0.00000000000000     0.00000000000000     0.00000000000000     0.00000000000000     0.66393237893308




	There are 0 unique integrals

  ## Fock (Symmetry 0) ##
  Irrep: 1 Size: 10 x 10

                 1                   2                   3                   4                   5

    1    -0.42382623715908    -0.36054099622473    -0.04582954338529     0.00000000000000     0.00000000000000
    2    -0.36054099622473    -0.31790033462339     0.02570221347584    -0.00000000000000     0.00000000000000
    3    -0.04582954338529     0.02570221347584     0.67022893805584     0.00000000000000     0.00000000000000
    4     0.00000000000000    -0.00000000000000     0.00000000000000     0.66397425110101     0.00000000000000
    5     0.00000000000000     0.00000000000000     0.00000000000000     0.00000000000000     0.66397425110101
    6     0.01596574503640    -0.01422464571491     0.02106460241507    -0.00000000000000     0.00000000000000
    7    -0.01422464571491    -0.09661841982564    -0.13135132589006    -0.00000000000000     0.00000000000000
    8    -0.02106460241507     0.13135132589006     0.11448720395057     0.00000000000000     0.00000000000000
    9    -0.00000000000000     0.00000000000000    -0.00000000000000    -0.01282514928292     0.00000000000000
   10     0.00000000000000     0.00000000000000     0.00000000000000     0.00000000000000    -0.01282514928292

                 6                   7                   8                   9                  10

    1     0.01596574503640    -0.01422464571491    -0.02106460241506    -0.00000000000000     0.00000000000000
    2    -0.01422464571491    -0.09661841982564     0.13135132589006     0.00000000000000     0.00000000000000
    3     0.02106460241507    -0.13135132589006     0.11448720395057    -0.00000000000000     0.00000000000000
    4    -0.00000000000000    -0.00000000000000     0.00000000000000    -0.01282514928292     0.00000000000000
    5     0.00000000000000     0.00000000000000     0.00000000000000     0.00000000000000    -0.01282514928292
    6    -0.42382623715908    -0.36054099622473     0.04582954338529     0.00000000000000     0.00000000000000
    7    -0.36054099622473    -0.31790033462339    -0.02570221347584    -0.00000000000000     0.00000000000000
    8     0.04582954338529    -0.02570221347584     0.67022893805584     0.00000000000000     0.00000000000000
    9     0.00000000000000    -0.00000000000000     0.00000000000000     0.66397425110101     0.00000000000000
   10     0.00000000000000     0.00000000000000     0.00000000000000     0.00000000000000     0.66397425110101



  ## C (Symmetry 0) ##
  Irrep: 1 Size: 10 x 10

                 1                   2                   3                   4                   5

    1     0.93823549895112     0.87895625393111     0.05273524702091    -0.01323588590077     0.01986093242769
    2    -1.04021480581009    -0.86993892229341    -0.00141936109663    -0.03736473862088    -0.15205009717913
    3     0.49023700591138    -0.50841651580152    -0.06592659812840    -0.02139091017718    -0.04230062239665
    4    -0.41568800745548     0.55315385505975    -0.14569931483163    -0.00098690852278     0.00059869332188
    5     0.01301307264876    -0.08037456249395     0.70350923725339    -0.00000000000000    -0.00000000000000
    6    -0.00883058118159    -0.02956218378421    -0.00031655267921    -0.95546436976399    -0.23430479731965
    7     0.15195380870049     0.19075903068209     0.00221402613435     0.51421189698241     0.89703940440510
    8    -0.05056676267761    -0.05853344557358    -0.00111428479417     0.36153323542973     0.59030200645045
    9     0.00067858096836    -0.00090298414168     0.00023784372023     0.60456460835772    -0.36675009416964
   10     0.07188915888118    -0.12801350363640    -0.69281970885562    -0.00000000000000     0.00000000000000

                 6                   7                   8                   9                  10

    1     0.32766574375828     0.42552777463333    -0.07326254761049     0.00763318791230     0.05426229629141
    2     0.53662136212141     0.30106966377894     0.05443245210608    -0.09746832262066    -0.25112709892877
    3     0.52156513001778    -0.48515125650558     0.06697984686038    -0.03587699652949    -0.06618003036803
    4     0.41568800745548    -0.55315385505975    -0.14569931483163     0.00098690852278    -0.00059869332188
    5     0.01324785045925    -0.08079293777126    -0.70125102335497     0.00000000000000    -0.00000000000000
    6     0.04929576686069     0.01360428716491     0.00227075530437    -0.96057658476448    -0.24273196423458
    7    -0.18423782888298    -0.05890754989388    -0.01351675893709     0.53445850060970     0.93041466507201
    8     0.04243315836814     0.01053124755272     0.00424093382629    -0.37716941733267    -0.62740314771250
    9    -0.00067858096836     0.00090298414168     0.00023784372023    -0.60456460835774     0.36675009416963
   10    -0.07193202796163     0.12827659806403    -0.69052653811012     0.00000000000000    -0.00000000000000




 In Bisection function HOMO = -0.792  LUMO =  0.821

 0.01422 = (-0.79233 + 0.82077)/2.0
 sum -  nocc_ = 3.00000000
 On Iteration in Bisection 0
 a: 3.00000  b:-0.50000

 -0.38906 = (-0.79233 + 0.01422)/2.0
 sum -  nocc_ = 1.00000000
 On Iteration in Bisection 1
 a: 1.00000  b:-0.50000

 -0.59070 = (-0.79233 + -0.38906)/2.0
 sum -  nocc_ = 1.00000000
 On Iteration in Bisection 2
 a: 1.00000  b:-0.50000

 -0.69151 = (-0.79233 + -0.59070)/2.0
 sum -  nocc_ = 0.99996094
 On Iteration in Bisection 3
 a: 0.99996  b:-0.50000

 -0.74192 = (-0.79233 + -0.69151)/2.0
 sum -  nocc_ = 0.00000000
 ef = -0.74192 sum = 1.00000 

 Iter: 0  T:      100.000  val:-0.741924  sumni 0.00000
 ne = 1.0000

Nuc Replusion =       0.251989146948
 1st iteration =       0.496758031370
 In Bisection function HOMO = -0.272  LUMO =  1.831

 0.77970 = (-0.27166 + 1.83107)/2.0
 sum -  nocc_ = 3.00000000
 On Iteration in Bisection 0
 a: 3.00000  b:-0.50000

 0.25402 = (-0.27166 + 0.77970)/2.0
 sum -  nocc_ = 1.00000000
 On Iteration in Bisection 1
 a: 1.00000  b:-0.50000

 -0.00882 = (-0.27166 + 0.25402)/2.0
 sum -  nocc_ = 0.00000000
 ef = -0.00882 sum = 1.00000 

 Iter: 0  T:      100.000  val:-0.008821  sumni 0.00000
 ne = 1.0000

 iter:1  failiter:1  energy:     -1.017539651839  total:     -0.765550504891  error:     -0.108670749061
 In Bisection function HOMO = -0.291  LUMO =  1.898

 0.80327 = (-0.29112 + 1.89767)/2.0
 sum -  nocc_ = 2.00000000
 On Iteration in Bisection 0
 a: 2.00000  b:-0.50000

 0.25608 = (-0.29112 + 0.80327)/2.0
 sum -  nocc_ = 1.00000000
 On Iteration in Bisection 1
 a: 1.00000  b:-0.50000

 -0.01752 = (-0.29112 + 0.25608)/2.0
 sum -  nocc_ = 1.00000000
 On Iteration in Bisection 2
 a: 1.00000  b:-0.50000

 -0.15432 = (-0.29112 + -0.01752)/2.0
 sum -  nocc_ = 0.00000000
 ef = -0.15432 sum = 1.00000 

 Iter: 1  T:      100.000  val:-0.154324  sumni 0.00000
 ne = 1.0000

 iter:2  failiter:2  energy:     -1.064763184193  total:     -0.812774037246  error:     -0.047223532354
 In Bisection function HOMO = -0.342  LUMO =  1.800

 0.72878 = (-0.34245 + 1.80001)/2.0
 sum -  nocc_ = 2.00000000
 On Iteration in Bisection 0
 a: 2.00000  b:-0.50000

 0.19316 = (-0.34245 + 0.72878)/2.0
 sum -  nocc_ = 1.00000000
 On Iteration in Bisection 1
 a: 1.00000  b:-0.50000

 -0.07464 = (-0.34245 + 0.19316)/2.0
 sum -  nocc_ = 0.00000026
 On Iteration in Bisection 2
 a: 0.00000  b:-0.50000

 -0.20855 = (-0.34245 + -0.07464)/2.0
 sum -  nocc_ = 0.00000000
 ef = -0.20855 sum = 1.00000 

 Iter: 2  T:      100.000  val:-0.208547  sumni 0.00000
 ne = 1.0000

 iter:3  failiter:3  energy:     -1.125773915015  total:     -0.873784768067  error:     -0.061010730822
 In Bisection function HOMO = -0.370  LUMO =  1.689

 0.65972 = (-0.37002 + 1.68946)/2.0
 sum -  nocc_ = 2.00000000
 On Iteration in Bisection 0
 a: 2.00000  b:-0.50000

 0.14485 = (-0.37002 + 0.65972)/2.0
 sum -  nocc_ = 1.00000000
 On Iteration in Bisection 1
 a: 1.00000  b:-0.50000

 -0.11259 = (-0.37002 + 0.14485)/2.0
 sum -  nocc_ = 0.00000000
 ef = -0.11259 sum = 1.00000 

 Iter: 3  T:      100.000  val:-0.112586  sumni 0.00000
 ne = 1.0000

 iter:4  failiter:4  energy:     -1.153875863286  total:     -0.901886716338  error:     -0.028101948271
 In Bisection function HOMO = -0.376  LUMO =  1.658

 0.64112 = (-0.37619 + 1.65843)/2.0
 sum -  nocc_ = 1.99999999
 On Iteration in Bisection 0
 a: 2.00000  b:-0.50000

 0.13247 = (-0.37619 + 0.64112)/2.0
 sum -  nocc_ = 1.00000000
 On Iteration in Bisection 1
 a: 1.00000  b:-0.50000

 -0.12186 = (-0.37619 + 0.13247)/2.0
 sum -  nocc_ = 0.00000000
 ef = -0.12186 sum = 1.00000 

 Iter: 4  T:      100.000  val:-0.121859  sumni 0.00000
 ne = 1.0000

 iter:5  failiter:5  energy:     -1.159800818180  total:     -0.907811671232  error:     -0.005924954894
 In Bisection function HOMO = -0.377  LUMO =  1.654

 0.63841 = (-0.37716 + 1.65398)/2.0
 sum -  nocc_ = 1.00000000
 On Iteration in Bisection 0
 a: 1.00000  b:-0.50000

 0.13062 = (-0.37716 + 0.63841)/2.0
 sum -  nocc_ = 1.00000000
 On Iteration in Bisection 1
 a: 1.00000  b:-0.50000

 -0.12327 = (-0.37716 + 0.13062)/2.0
 sum -  nocc_ = 0.00000000
 ef = -0.12327 sum = 1.00000 

 Iter: 5  T:      100.000  val:-0.123271  sumni 0.00000
 ne = 1.0000

 iter:6  failiter:6  energy:     -1.160691543255  total:     -0.908702396307  error:     -0.000890725075
 In Bisection function HOMO = -0.377  LUMO =  1.653

 0.63804 = (-0.37732 + 1.65340)/2.0
 sum -  nocc_ = 1.00000000
 On Iteration in Bisection 0
 a: 1.00000  b:-0.50000

 0.13036 = (-0.37732 + 0.63804)/2.0
 sum -  nocc_ = 1.00000000
 On Iteration in Bisection 1
 a: 1.00000  b:-0.50000

 -0.12348 = (-0.37732 + 0.13036)/2.0
 sum -  nocc_ = 0.00000000
 ef = -0.12348 sum = 1.00000 

 Iter: 6  T:      100.000  val:-0.123484  sumni 0.00000
 ne = 1.0000

 iter:7  failiter:7  energy:     -1.160829351837  total:     -0.908840204889  error:     -0.000137808582
 In Bisection function HOMO = -0.377  LUMO =  1.653

 0.63798 = (-0.37735 + 1.65331)/2.0
 sum -  nocc_ = 1.00000000
 On Iteration in Bisection 0
 a: 1.00000  b:-0.50000

 0.13031 = (-0.37735 + 0.63798)/2.0
 sum -  nocc_ = 1.00000000
 On Iteration in Bisection 1
 a: 1.00000  b:-0.50000

 -0.12352 = (-0.37735 + 0.13031)/2.0
 sum -  nocc_ = 0.00000000
 ef = -0.12352 sum = 1.00000 

 Iter: 7  T:      100.000  val:-0.123519  sumni 0.00000
 ne = 1.0000

 iter:8  failiter:8  energy:     -1.160852794332  total:     -0.908863647384  error:     -0.000023442495
 In Bisection function HOMO = -0.377  LUMO =  1.653

 0.63797 = (-0.37736 + 1.65330)/2.0
 sum -  nocc_ = 1.00000000
 On Iteration in Bisection 0
 a: 1.00000  b:-0.50000

 0.13031 = (-0.37736 + 0.63797)/2.0
 sum -  nocc_ = 1.00000000
 On Iteration in Bisection 1
 a: 1.00000  b:-0.50000

 -0.12353 = (-0.37736 + 0.13031)/2.0
 sum -  nocc_ = 0.00000000
 ef = -0.12353 sum = 1.00000 

 Iter: 8  T:      100.000  val:-0.123525  sumni 0.00000
 ne = 1.0000

 iter:9  failiter:9  energy:     -1.160857061811  total:     -0.908867914863  error:     -0.000004267479
 In Bisection function HOMO = -0.377  LUMO =  1.653

 0.63797 = (-0.37736 + 1.65330)/2.0
 sum -  nocc_ = 1.00000000
 On Iteration in Bisection 0
 a: 1.00000  b:-0.50000

 0.13031 = (-0.37736 + 0.63797)/2.0
 sum -  nocc_ = 1.00000000
 On Iteration in Bisection 1
 a: 1.00000  b:-0.50000

 -0.12353 = (-0.37736 + 0.13031)/2.0
 sum -  nocc_ = 0.00000000
 ef = -0.12353 sum = 1.00000 

 Iter: 9  T:      100.000  val:-0.123526  sumni 0.00000
 ne = 1.0000

 iter:10  failiter:10  energy:     -1.160857862253  total:     -0.908868715305  error:     -0.000000800442
 In Bisection function HOMO = -0.377  LUMO =  1.653

 0.63797 = (-0.37736 + 1.65330)/2.0
 sum -  nocc_ = 1.00000000
 On Iteration in Bisection 0
 a: 1.00000  b:-0.50000

 0.13031 = (-0.37736 + 0.63797)/2.0
 sum -  nocc_ = 1.00000000
 On Iteration in Bisection 1
 a: 1.00000  b:-0.50000

 -0.12353 = (-0.37736 + 0.13031)/2.0
 sum -  nocc_ = 0.00000000
 ef = -0.12353 sum = 1.00000 

 Iter: 10  T:      100.000  val:-0.123526  sumni 0.00000
 ne = 1.0000

 iter:11  failiter:11  energy:     -1.160858014098  total:     -0.908868867151  error:     -0.000000151846
 In Bisection function HOMO = -0.377  LUMO =  1.653

 0.63797 = (-0.37736 + 1.65330)/2.0
 sum -  nocc_ = 1.00000000
 On Iteration in Bisection 0
 a: 1.00000  b:-0.50000

 0.13031 = (-0.37736 + 0.63797)/2.0
 sum -  nocc_ = 1.00000000
 On Iteration in Bisection 1
 a: 1.00000  b:-0.50000

 -0.12353 = (-0.37736 + 0.13031)/2.0
 sum -  nocc_ = 0.00000000
 ef = -0.12353 sum = 1.00000 

 Iter: 11  T:      100.000  val:-0.123526  sumni 0.00000
 ne = 1.0000

 iter:12  failiter:12  energy:     -1.160858042964  total:     -0.908868896016  error:     -0.000000028865
 In Bisection function HOMO = -0.377  LUMO =  1.653

 0.63797 = (-0.37736 + 1.65330)/2.0
 sum -  nocc_ = 1.00000000
 On Iteration in Bisection 0
 a: 1.00000  b:-0.50000

 0.13031 = (-0.37736 + 0.63797)/2.0
 sum -  nocc_ = 1.00000000
 On Iteration in Bisection 1
 a: 1.00000  b:-0.50000

 -0.12353 = (-0.37736 + 0.13031)/2.0
 sum -  nocc_ = 0.00000000
 ef = -0.12353 sum = 1.00000 

 Iter: 12  T:      100.000  val:-0.123526  sumni 0.00000
 ne = 1.0000

 iter:13  failiter:13  energy:     -1.160858048445  total:     -0.908868901497  error:     -0.000000005481
 In Bisection function HOMO = -0.377  LUMO =  1.653

 0.63797 = (-0.37736 + 1.65330)/2.0
 sum -  nocc_ = 1.00000000
 On Iteration in Bisection 0
 a: 1.00000  b:-0.50000

 0.13031 = (-0.37736 + 0.63797)/2.0
 sum -  nocc_ = 1.00000000
 On Iteration in Bisection 1
 a: 1.00000  b:-0.50000

 -0.12353 = (-0.37736 + 0.13031)/2.0
 sum -  nocc_ = 0.00000000
 ef = -0.12353 sum = 1.00000 

 Iter: 13  T:      100.000  val:-0.123526  sumni 0.00000
 ne = 1.0000

 iter:14  failiter:14  energy:     -1.160858049483  total:     -0.908868902536  error:     -0.000000001039
 In Bisection function HOMO = -0.377  LUMO =  1.653

 0.63797 = (-0.37736 + 1.65330)/2.0
 sum -  nocc_ = 1.00000000
 On Iteration in Bisection 0
 a: 1.00000  b:-0.50000

 0.13031 = (-0.37736 + 0.63797)/2.0
 sum -  nocc_ = 1.00000000
 On Iteration in Bisection 1
 a: 1.00000  b:-0.50000

 -0.12353 = (-0.37736 + 0.13031)/2.0
 sum -  nocc_ = 0.00000000
 ef = -0.12353 sum = 1.00000 

 Iter: 14  T:      100.000  val:-0.123526  sumni 0.00000
 ne = 1.0000

 iter:15  failiter:15  energy:     -1.160858049680  total:     -0.908868902732  error:     -0.000000000196
 In Bisection function HOMO = -0.377  LUMO =  1.653

 0.63797 = (-0.37736 + 1.65330)/2.0
 sum -  nocc_ = 1.00000000
 On Iteration in Bisection 0
 a: 1.00000  b:-0.50000

 0.13031 = (-0.37736 + 0.63797)/2.0
 sum -  nocc_ = 1.00000000
 On Iteration in Bisection 1
 a: 1.00000  b:-0.50000

 -0.12353 = (-0.37736 + 0.13031)/2.0
 sum -  nocc_ = 0.00000000
 ef = -0.12353 sum = 1.00000 

 Iter: 15  T:      100.000  val:-0.123526  sumni 0.00000
 ne = 1.0000

 iter:16  failiter:16  energy:     -1.160858049717  total:     -0.908868902769  error:     -0.000000000037
 In Bisection function HOMO = -0.377  LUMO =  1.653

 0.63797 = (-0.37736 + 1.65330)/2.0
 sum -  nocc_ = 1.00000000
 On Iteration in Bisection 0
 a: 1.00000  b:-0.50000

 0.13031 = (-0.37736 + 0.63797)/2.0
 sum -  nocc_ = 1.00000000
 On Iteration in Bisection 1
 a: 1.00000  b:-0.50000

 -0.12353 = (-0.37736 + 0.13031)/2.0
 sum -  nocc_ = 0.00000000
 ef = -0.12353 sum = 1.00000 

 Iter: 16  T:      100.000  val:-0.123526  sumni 0.00000
 ne = 1.0000

 iter:17  failiter:17  energy:     -1.160858049724  total:     -0.908868902776  error:     -0.000000000007
 In Bisection function HOMO = -0.377  LUMO =  1.653

 0.63797 = (-0.37736 + 1.65330)/2.0
 sum -  nocc_ = 1.00000000
 On Iteration in Bisection 0
 a: 1.00000  b:-0.50000

 0.13031 = (-0.37736 + 0.63797)/2.0
 sum -  nocc_ = 1.00000000
 On Iteration in Bisection 1
 a: 1.00000  b:-0.50000

 -0.12353 = (-0.37736 + 0.13031)/2.0
 sum -  nocc_ = 0.00000000
 ef = -0.12353 sum = 1.00000 

 Iter: 17  T:      100.000  val:-0.123526  sumni 0.00000
 ne = 1.0000

 iter:18  failiter:18  energy:     -1.160858049725  total:     -0.908868902778  error:     -0.000000000001
 In Bisection function HOMO = -0.377  LUMO =  1.653

 0.63797 = (-0.37736 + 1.65330)/2.0
 sum -  nocc_ = 1.00000000
 On Iteration in Bisection 0
 a: 1.00000  b:-0.50000

 0.13031 = (-0.37736 + 0.63797)/2.0
 sum -  nocc_ = 1.00000000
 On Iteration in Bisection 1
 a: 1.00000  b:-0.50000

 -0.12353 = (-0.37736 + 0.13031)/2.0
 sum -  nocc_ = 0.00000000
 ef = -0.12353 sum = 1.00000 

 Iter: 18  T:      100.000  val:-0.123526  sumni 0.00000
 ne = 1.0000

 iter:19  failiter:19  energy:     -1.160858049725  total:     -0.908868902778  error:     -0.000000000000
 FTHFEnergy =    -0.908869
 FD_dis[0] = 1.00000000 with -0.377358 eig value
 FD_dis[1] = 0.00000000 with -0.047480 eig value
 FD_dis[2] = 0.00000000 with 0.654555 eig value
 FD_dis[3] = 0.00000000 with 0.662437 eig value
 FD_dis[4] = 0.00000000 with 1.375917 eig value
 FD_dis[5] = 0.00000000 with 1.458128 eig value
 FD_dis[6] = 0.00000000 with 1.458128 eig value
 FD_dis[7] = 0.00000000 with 1.491293 eig value
 FD_dis[8] = 0.00000000 with 1.491293 eig value
 FD_dis[9] = 0.00000000 with 1.653297 eig value
*** PSI4 exiting successfully. Buy a developer a beer!
